/*--------------------------------*- C++ -*----------------------------------*\
  =========                 |
  \\      /  F ield         | OpenFOAM: The Open Source CFD Toolbox
   \\    /   O peration     | Website:  https://openfoam.org
    \\  /    A nd           | Version:  11
     \\/     M anipulation  |
\*---------------------------------------------------------------------------*/
FoamFile
{
    format      ascii;
    class       volScalarField;
    location    "100";
    object      p;
}
// * * * * * * * * * * * * * * * * * * * * * * * * * * * * * * * * * * * * * //

dimensions      [0 2 -2 0 0 0 0];

internalField   nonuniform List<scalar> 
128000
(
493771
478295
149103
-21887.1
-358476
-551581
-695117
-701837
-615396
-561614
-815524
-1.02578e+06
-1.27515e+06
-1.43454e+06
-1.56332e+06
-1.71362e+06
-1.8503e+06
-2.03981e+06
-2.14623e+06
-2.22468e+06
-2.15465e+06
-2.19087e+06
-1.99497e+06
-1.74677e+06
-1.49278e+06
-1.31158e+06
-1.096e+06
-890970
-542242
-172861
-19422.1
-101315
-273414
-344148
-177301
99439.2
567616
862844
1.27189e+06
1.37156e+06
502460
647882
496602
364205
38649.4
-286177
-529306
-696516
-778419
-581271
-781127
-973353
-1.18159e+06
-1.41016e+06
-1.58191e+06
-1.7559e+06
-1.88561e+06
-2.05205e+06
-2.13991e+06
-2.21262e+06
-2.13085e+06
-2.12704e+06
-1.98167e+06
-1.78207e+06
-1.55838e+06
-1.34343e+06
-1.08194e+06
-784532
-450994
-225173
-94169.9
-317922
-423780
-263355
160735
630928
1.11768e+06
1.33307e+06
1.54149e+06
1.41552e+06
174589
505021
394062
377921
127906
-158221
-505217
-568649
-750313
-822886
-959321
-1.17252e+06
-1.40997e+06
-1.62396e+06
-1.74118e+06
-1.92554e+06
-2.04818e+06
-2.20298e+06
-2.26492e+06
-2.33808e+06
-2.27483e+06
-2.27284e+06
-2.12393e+06
-1.96051e+06
-1.74533e+06
-1.49424e+06
-1.26511e+06
-1.0074e+06
-732112
-492691
-386455
-494196
-401407
-198850
395435
781836
1.16229e+06
1.23104e+06
1.3889e+06
1.02783e+06
28457.6
389259
396470
434188
281310
30733
-330529
-581645
-729881
-835325
-1.15797e+06
-1.39007e+06
-1.4602e+06
-1.73279e+06
-1.98048e+06
-2.09648e+06
-2.17496e+06
-2.31311e+06
-2.40078e+06
-2.44848e+06
-2.40512e+06
-2.3724e+06
-2.25742e+06
-2.11534e+06
-1.97652e+06
-1.84042e+06
-1.57862e+06
-1.23634e+06
-1.01725e+06
-878275
-584027
-508040
-401561
130354
646549
992751
1.26559e+06
1.25144e+06
1.2731e+06
872001
-300830
83906.6
160771
303260
254627
101586
-165983
-484954
-672538
-854813
-946772
-1.38464e+06
-1.70082e+06
-1.93742e+06
-1.94621e+06
-2.17749e+06
-2.30666e+06
-2.45691e+06
-2.55139e+06
-2.61973e+06
-2.57961e+06
-2.57191e+06
-2.44504e+06
-2.33167e+06
-2.16425e+06
-1.83501e+06
-1.73351e+06
-1.6075e+06
-1.24065e+06
-724804
-625474
-450774
-186004
343420
741920
992022
1.12089e+06
973347
936318
461620
-489518
-225333
-116216
60078.5
118240
50769.8
-117426
-373821
-663372
-749315
-1.12582e+06
-1.31257e+06
-1.52766e+06
-1.88325e+06
-2.13202e+06
-2.26068e+06
-2.27176e+06
-2.43619e+06
-2.6062e+06
-2.65355e+06
-2.64356e+06
-2.58236e+06
-2.43528e+06
-2.27658e+06
-2.19475e+06
-2.10613e+06
-1.80733e+06
-1.38615e+06
-954767
-869405
-471484
-428322
25931.4
450089
730469
874969
858309
682493
595279
164958
-643322
-444245
-418195
-267401
-120310
-97624
-168253
-353311
-603090
-852783
-1.03899e+06
-1.45364e+06
-1.76247e+06
-1.95787e+06
-2.09305e+06
-2.29379e+06
-2.40378e+06
-2.59375e+06
-2.7636e+06
-2.82427e+06
-2.73815e+06
-2.63224e+06
-2.53067e+06
-2.37237e+06
-2.18055e+06
-1.89249e+06
-1.64624e+06
-1.49546e+06
-1.25037e+06
-719413
-617777
-263519
120269
429478
583660
626000
511688
361575
215447
-128620
-668712
-637246
-480773
-503276
-417057
-338723
-332225
-434044
-625223
-843432
-1.13319e+06
-1.42586e+06
-1.72815e+06
-2.11888e+06
-2.33796e+06
-2.47379e+06
-2.54618e+06
-2.7167e+06
-2.88696e+06
-2.93318e+06
-2.83371e+06
-2.72883e+06
-2.5814e+06
-2.41907e+06
-2.30461e+06
-2.12696e+06
-1.90237e+06
-1.47848e+06
-1.12526e+06
-842094
-515902
-205548
80340.8
271943
322574
301992
159394
94387.5
-95199.6
-320234
-590365
-755547
-686803
-656107
-596783
-612435
-565971
-604466
-730382
-921305
-1.16227e+06
-1.47034e+06
-1.78324e+06
-2.07355e+06
-2.34701e+06
-2.58561e+06
-2.73759e+06
-2.93378e+06
-3.07249e+06
-3.10806e+06
-3.00426e+06
-2.90413e+06
-2.7788e+06
-2.58373e+06
-2.40313e+06
-2.12123e+06
-1.79166e+06
-1.50092e+06
-1.19777e+06
-830418
-565154
-281095
-77597
45432.4
68279.3
43960.2
-28692.7
-72417
-324500
-434735
-534695
-550422
-768687
-762923
-774051
-697067
-799439
-811082
-907476
-1.07883e+06
-1.31009e+06
-1.59837e+06
-1.89499e+06
-2.22172e+06
-2.47075e+06
-2.70194e+06
-2.86792e+06
-3.06413e+06
-3.18908e+06
-3.30827e+06
-3.25105e+06
-3.15907e+06
-3.01536e+06
-2.8082e+06
-2.60421e+06
-2.30531e+06
-2.03892e+06
-1.67335e+06
-1.3419e+06
-1.00436e+06
-732940
-471173
-319037
-214180
-181895
-202385
-212011
-309712
-557927
-417149
-823437
-762798
-914943
-1.08213e+06
-896235
-1.05605e+06
-1.0025e+06
-1.09451e+06
-1.14236e+06
-1.30017e+06
-1.50849e+06
-1.79301e+06
-2.09369e+06
-2.41611e+06
-2.68836e+06
-2.97984e+06
-3.18286e+06
-3.40558e+06
-3.54042e+06
-3.61894e+06
-3.5857e+06
-3.50758e+06
-3.3444e+06
-3.11018e+06
-2.85982e+06
-2.54967e+06
-2.2383e+06
-1.8826e+06
-1.56618e+06
-1.23416e+06
-989671
-743851
-616370
-471616
-432913
-429690
-427763
-506380
-551350
-294967
-1.01339e+06
-952454
-1.1295e+06
-1.30001e+06
-1.3115e+06
-1.25938e+06
-1.3767e+06
-1.38406e+06
-1.43562e+06
-1.57978e+06
-1.78487e+06
-2.07366e+06
-2.38257e+06
-2.72183e+06
-3.02554e+06
-3.3012e+06
-3.55743e+06
-3.77559e+06
-3.93864e+06
-4.01044e+06
-4.01379e+06
-3.92473e+06
-3.78202e+06
-3.54584e+06
-3.31275e+06
-2.98336e+06
-2.66177e+06
-2.28278e+06
-1.94982e+06
-1.60087e+06
-1.33793e+06
-1.06194e+06
-911725
-707750
-706575
-665037
-617202
-528598
-309413
-220366
-1.25762e+06
-1.16232e+06
-1.36876e+06
-1.3908e+06
-1.63267e+06
-1.46845e+06
-1.70562e+06
-1.69412e+06
-1.75387e+06
-1.87703e+06
-2.08778e+06
-2.38251e+06
-2.71586e+06
-3.07644e+06
-3.41679e+06
-3.73523e+06
-3.99156e+06
-4.22377e+06
-4.37704e+06
-4.44187e+06
-4.44067e+06
-4.3498e+06
-4.20812e+06
-3.95694e+06
-3.69065e+06
-3.33954e+06
-3.00665e+06
-2.63231e+06
-2.31163e+06
-1.97973e+06
-1.72992e+06
-1.45338e+06
-1.27277e+06
-1.07503e+06
-1.00087e+06
-984246
-864861
-715491
-520443
-551394
-1.41697e+06
-1.38633e+06
-1.58578e+06
-1.68532e+06
-1.86825e+06
-1.8303e+06
-1.91518e+06
-2.06552e+06
-2.04276e+06
-2.19522e+06
-2.40546e+06
-2.71486e+06
-3.07131e+06
-3.45626e+06
-3.82709e+06
-4.17476e+06
-4.48025e+06
-4.7157e+06
-4.90215e+06
-4.97631e+06
-5.00796e+06
-4.92335e+06
-4.79338e+06
-4.54533e+06
-4.27592e+06
-3.91862e+06
-3.56956e+06
-3.17517e+06
-2.82614e+06
-2.4625e+06
-2.16627e+06
-1.84034e+06
-1.61145e+06
-1.38855e+06
-1.34642e+06
-1.26033e+06
-1.11762e+06
-920688
-740655
-757261
-1.54774e+06
-1.55979e+06
-1.70966e+06
-1.92992e+06
-1.89871e+06
-2.08945e+06
-2.06489e+06
-2.31296e+06
-2.32992e+06
-2.45758e+06
-2.69121e+06
-3.02829e+06
-3.42074e+06
-3.83335e+06
-4.23478e+06
-4.60712e+06
-4.92892e+06
-5.17587e+06
-5.35724e+06
-5.42759e+06
-5.43635e+06
-5.33164e+06
-5.16753e+06
-4.89109e+06
-4.59152e+06
-4.21958e+06
-3.8681e+06
-3.49885e+06
-3.19413e+06
-2.88574e+06
-2.64218e+06
-2.3248e+06
-2.06591e+06
-1.77329e+06
-1.68847e+06
-1.57954e+06
-1.43551e+06
-1.23252e+06
-1.05093e+06
-1.07824e+06
-1.70116e+06
-1.73216e+06
-1.9002e+06
-2.04393e+06
-2.13991e+06
-2.2208e+06
-2.27898e+06
-2.44771e+06
-2.56725e+06
-2.68622e+06
-2.97472e+06
-3.29896e+06
-3.73419e+06
-4.17601e+06
-4.60868e+06
-5.01746e+06
-5.37407e+06
-5.65356e+06
-5.86864e+06
-5.96552e+06
-6.0023e+06
-5.9164e+06
-5.77552e+06
-5.51515e+06
-5.22175e+06
-4.85006e+06
-4.47926e+06
-4.08734e+06
-3.74253e+06
-3.40639e+06
-3.11998e+06
-2.74993e+06
-2.43443e+06
-2.17208e+06
-2.02542e+06
-1.8743e+06
-1.69172e+06
-1.45564e+06
-1.28731e+06
-1.27581e+06
-1.83971e+06
-1.86315e+06
-2.03376e+06
-2.14221e+06
-2.29423e+06
-2.24289e+06
-2.41363e+06
-2.53712e+06
-2.73432e+06
-2.8681e+06
-3.19515e+06
-3.57139e+06
-4.00525e+06
-4.48936e+06
-4.93848e+06
-5.36862e+06
-5.732e+06
-6.01392e+06
-6.21702e+06
-6.29541e+06
-6.29907e+06
-6.16815e+06
-5.96967e+06
-5.65216e+06
-5.30226e+06
-4.89872e+06
-4.52716e+06
-4.18791e+06
-3.9706e+06
-3.80398e+06
-3.73273e+06
-3.43398e+06
-3.00754e+06
-2.52716e+06
-2.32347e+06
-2.10881e+06
-1.93527e+06
-1.68115e+06
-1.63235e+06
-1.59075e+06
-2.02998e+06
-2.02739e+06
-2.19278e+06
-2.28884e+06
-2.44204e+06
-2.43298e+06
-2.58337e+06
-2.70849e+06
-2.91428e+06
-3.057e+06
-3.40471e+06
-3.7765e+06
-4.23295e+06
-4.71651e+06
-5.19504e+06
-5.65662e+06
-6.05126e+06
-6.37032e+06
-6.60912e+06
-6.72665e+06
-6.7684e+06
-6.67748e+06
-6.52056e+06
-6.24103e+06
-5.91245e+06
-5.51429e+06
-5.10495e+06
-4.72433e+06
-4.4314e+06
-4.31029e+06
-4.26526e+06
-3.94492e+06
-3.40336e+06
-2.94004e+06
-2.611e+06
-2.35113e+06
-2.1414e+06
-1.83794e+06
-1.92261e+06
-1.85013e+06
-2.11291e+06
-2.09027e+06
-2.25111e+06
-2.37107e+06
-2.54144e+06
-2.60627e+06
-2.77551e+06
-2.88156e+06
-3.05658e+06
-3.20147e+06
-3.54952e+06
-3.95634e+06
-4.40113e+06
-4.91057e+06
-5.3862e+06
-5.86053e+06
-6.24835e+06
-6.55873e+06
-6.77494e+06
-6.8547e+06
-6.84874e+06
-6.68452e+06
-6.43451e+06
-6.04833e+06
-5.60669e+06
-5.10724e+06
-4.66111e+06
-4.30464e+06
-4.2866e+06
-4.64934e+06
-5.33237e+06
-5.23897e+06
-4.17438e+06
-3.08332e+06
-2.59525e+06
-2.31809e+06
-2.11293e+06
-1.92281e+06
-2.16324e+06
-1.96578e+06
-2.19251e+06
-2.16214e+06
-2.32573e+06
-2.42068e+06
-2.60689e+06
-2.63868e+06
-2.8132e+06
-2.90042e+06
-3.07095e+06
-3.30781e+06
-3.61233e+06
-4.01772e+06
-4.46561e+06
-4.97658e+06
-5.47492e+06
-5.97154e+06
-6.39024e+06
-6.73469e+06
-6.99225e+06
-7.11675e+06
-7.16298e+06
-7.06431e+06
-6.89342e+06
-6.5858e+06
-6.20945e+06
-5.7455e+06
-5.2165e+06
-4.76136e+06
-4.56432e+06
-5.0565e+06
-5.78958e+06
-5.54483e+06
-4.38039e+06
-3.2385e+06
-2.62995e+06
-2.33099e+06
-2.19836e+06
-1.94462e+06
-1.88553e+06
-1.76734e+06
-2.11745e+06
-2.09193e+06
-2.2591e+06
-2.37932e+06
-2.58179e+06
-2.62946e+06
-2.71876e+06
-2.80333e+06
-2.98007e+06
-3.25893e+06
-3.5877e+06
-4.02287e+06
-4.46651e+06
-5.0121e+06
-5.49867e+06
-5.9956e+06
-6.39886e+06
-6.72316e+06
-6.94855e+06
-7.02485e+06
-7.01485e+06
-6.82041e+06
-6.52895e+06
-6.06105e+06
-5.49169e+06
-4.77479e+06
-4.03545e+06
-3.38169e+06
-3.71084e+06
-4.90561e+06
-6.28261e+06
-6.2289e+06
-4.45175e+06
-2.75681e+06
-1.99885e+06
-1.98509e+06
-1.89472e+06
-2.00236e+06
-2.15216e+06
-2.06282e+06
-2.16127e+06
-2.09343e+06
-2.25287e+06
-2.34975e+06
-2.57866e+06
-2.57196e+06
-2.65403e+06
-2.71172e+06
-2.90128e+06
-3.16468e+06
-3.507e+06
-3.93333e+06
-4.38578e+06
-4.91806e+06
-5.42169e+06
-5.92325e+06
-6.34943e+06
-6.69584e+06
-6.96233e+06
-7.085e+06
-7.14323e+06
-7.04248e+06
-6.88578e+06
-6.57906e+06
-6.23317e+06
-5.77923e+06
-5.32687e+06
-4.91439e+06
-4.61467e+06
-4.71623e+06
-4.83826e+06
-4.86442e+06
-4.42623e+06
-3.14759e+06
-2.57804e+06
-2.25045e+06
-2.18162e+06
-1.93968e+06
-1.86544e+06
-1.80283e+06
-1.96312e+06
-1.94882e+06
-2.09388e+06
-2.22048e+06
-2.42441e+06
-2.38993e+06
-2.52608e+06
-2.58012e+06
-2.79326e+06
-3.02095e+06
-3.37004e+06
-3.7949e+06
-4.25817e+06
-4.79591e+06
-5.28651e+06
-5.77626e+06
-6.18638e+06
-6.50671e+06
-6.74539e+06
-6.82243e+06
-6.83633e+06
-6.66198e+06
-6.42778e+06
-6.03161e+06
-5.6042e+06
-5.10078e+06
-4.65812e+06
-4.30728e+06
-4.27178e+06
-4.76412e+06
-5.50874e+06
-5.26183e+06
-4.06375e+06
-3.25893e+06
-2.64572e+06
-2.27851e+06
-2.04018e+06
-1.97583e+06
-1.99593e+06
-2.02229e+06
-1.71789e+06
-1.7457e+06
-1.92923e+06
-2.08864e+06
-2.3071e+06
-2.2617e+06
-2.368e+06
-2.42338e+06
-2.59693e+06
-2.81137e+06
-3.13879e+06
-3.54094e+06
-4.01408e+06
-4.53542e+06
-5.03276e+06
-5.51669e+06
-5.94379e+06
-6.27423e+06
-6.54719e+06
-6.6567e+06
-6.72923e+06
-6.62637e+06
-6.49324e+06
-6.19723e+06
-5.89335e+06
-5.47326e+06
-5.0858e+06
-4.66171e+06
-4.32505e+06
-4.05179e+06
-3.8758e+06
-3.55005e+06
-3.29262e+06
-2.86759e+06
-2.49401e+06
-2.30133e+06
-2.06305e+06
-1.81295e+06
-1.5951e+06
-1.62141e+06
-1.44698e+06
-1.50688e+06
-1.69787e+06
-1.93787e+06
-2.10524e+06
-2.16174e+06
-2.14991e+06
-2.28345e+06
-2.39369e+06
-2.60199e+06
-2.87939e+06
-3.30955e+06
-3.75561e+06
-4.26809e+06
-4.75346e+06
-5.22094e+06
-5.63527e+06
-5.94073e+06
-6.19307e+06
-6.26732e+06
-6.31027e+06
-6.164e+06
-5.98848e+06
-5.64693e+06
-5.30909e+06
-4.88284e+06
-4.51731e+06
-4.17176e+06
-3.95882e+06
-3.83015e+06
-3.79353e+06
-3.49741e+06
-3.03782e+06
-2.52877e+06
-2.36931e+06
-2.21425e+06
-2.00809e+06
-1.83434e+06
-1.62614e+06
-1.6132e+06
-1.26348e+06
-1.28703e+06
-1.45436e+06
-1.81181e+06
-1.82697e+06
-2.07706e+06
-1.87237e+06
-2.09258e+06
-2.11674e+06
-2.28941e+06
-2.56448e+06
-2.9596e+06
-3.39106e+06
-3.88571e+06
-4.36902e+06
-4.82524e+06
-5.24815e+06
-5.55374e+06
-5.82711e+06
-5.9166e+06
-5.99831e+06
-5.891e+06
-5.77409e+06
-5.47975e+06
-5.19607e+06
-4.7842e+06
-4.41523e+06
-3.97672e+06
-3.61832e+06
-3.22853e+06
-2.92997e+06
-2.57556e+06
-2.30211e+06
-2.07062e+06
-1.97852e+06
-1.9415e+06
-1.76691e+06
-1.54381e+06
-1.26007e+06
-1.29118e+06
-1.03134e+06
-1.01368e+06
-1.22284e+06
-1.55244e+06
-1.72077e+06
-1.77094e+06
-1.60953e+06
-1.8653e+06
-1.77126e+06
-2.02187e+06
-2.23837e+06
-2.63341e+06
-3.04794e+06
-3.52942e+06
-4.00161e+06
-4.4431e+06
-4.85336e+06
-5.14188e+06
-5.3972e+06
-5.46908e+06
-5.5273e+06
-5.40253e+06
-5.26115e+06
-4.94829e+06
-4.6545e+06
-4.25039e+06
-3.90533e+06
-3.52628e+06
-3.23703e+06
-2.94779e+06
-2.73928e+06
-2.43866e+06
-2.20868e+06
-1.85934e+06
-1.85573e+06
-1.87012e+06
-1.69754e+06
-1.52701e+06
-1.21641e+06
-1.21619e+06
-813872
-705533
-959720
-1.21466e+06
-1.61683e+06
-1.36823e+06
-1.4686e+06
-1.45704e+06
-1.48507e+06
-1.6447e+06
-1.86731e+06
-2.23367e+06
-2.6374e+06
-3.09992e+06
-3.56546e+06
-3.99534e+06
-4.40532e+06
-4.69034e+06
-4.948e+06
-5.02889e+06
-5.10412e+06
-5.00138e+06
-4.88415e+06
-4.59236e+06
-4.31723e+06
-3.91701e+06
-3.56407e+06
-3.14504e+06
-2.79977e+06
-2.42956e+06
-2.15142e+06
-1.86468e+06
-1.64095e+06
-1.53044e+06
-1.41608e+06
-1.53699e+06
-1.39024e+06
-1.22062e+06
-922643
-914750
-464842
-360642
-683651
-1.03483e+06
-1.23698e+06
-914942
-1.23605e+06
-1.09627e+06
-1.17788e+06
-1.30558e+06
-1.53807e+06
-1.89472e+06
-2.29149e+06
-2.74321e+06
-3.19575e+06
-3.61605e+06
-4.00863e+06
-4.29169e+06
-4.52768e+06
-4.61949e+06
-4.65861e+06
-4.56174e+06
-4.42079e+06
-4.12799e+06
-3.84733e+06
-3.46564e+06
-3.13638e+06
-2.75945e+06
-2.45807e+06
-2.14937e+06
-1.928e+06
-1.69854e+06
-1.53427e+06
-1.38978e+06
-1.29043e+06
-1.34663e+06
-1.32696e+06
-1.19312e+06
-902520
-780040
-43346.4
-121818
-450516
-891987
-723631
-847435
-694086
-819867
-796885
-959041
-1.185e+06
-1.53462e+06
-1.92485e+06
-2.36362e+06
-2.80658e+06
-3.21833e+06
-3.60651e+06
-3.88219e+06
-4.11156e+06
-4.22213e+06
-4.24843e+06
-4.1697e+06
-4.02214e+06
-3.74508e+06
-3.46908e+06
-3.09239e+06
-2.75526e+06
-2.37942e+06
-2.0613e+06
-1.73562e+06
-1.49973e+06
-1.27515e+06
-1.15814e+06
-1.01926e+06
-1.03647e+06
-984517
-1.03118e+06
-1.05459e+06
-1.10874e+06
-832892
62269.4
-14552.3
-356216
-584738
-607316
-459438
-609460
-489387
-529833
-686800
-934660
-1.28435e+06
-1.6695e+06
-2.09727e+06
-2.52292e+06
-2.92998e+06
-3.29049e+06
-3.60495e+06
-3.80519e+06
-3.96534e+06
-3.91787e+06
-3.83927e+06
-3.66578e+06
-3.38566e+06
-3.0993e+06
-2.75491e+06
-2.45782e+06
-2.1119e+06
-1.81338e+06
-1.52259e+06
-1.29973e+06
-1.10249e+06
-991655
-938942
-879378
-923569
-911982
-863396
-1.14559e+06
-965001
-45141.5
-284436
-521172
-523938
-460184
-434847
-244243
-171016
-233988
-420476
-686862
-1.03355e+06
-1.41976e+06
-1.83977e+06
-2.25823e+06
-2.67422e+06
-3.05467e+06
-3.35226e+06
-3.56203e+06
-3.75478e+06
-3.67161e+06
-3.56262e+06
-3.37851e+06
-3.12635e+06
-2.84197e+06
-2.50038e+06
-2.15149e+06
-1.84418e+06
-1.55574e+06
-1.25733e+06
-1.03157e+06
-827517
-702739
-647839
-685602
-700818
-778584
-710783
-885449
-980550
-235375
-416449
-415136
-415991
-176542
50509.7
151460
126727
-30799.9
-277153
-575208
-919309
-1.28565e+06
-1.69638e+06
-2.11282e+06
-2.52519e+06
-2.87771e+06
-3.18292e+06
-3.38837e+06
-3.58062e+06
-3.49004e+06
-3.35045e+06
-3.1976e+06
-2.92304e+06
-2.64535e+06
-2.33776e+06
-2.06162e+06
-1.72067e+06
-1.41649e+06
-1.17727e+06
-938583
-716107
-553734
-445595
-467457
-523380
-701091
-681450
-754389
-913601
-304557
-238544
-159171
175731
381441
489835
460794
325343
91666.2
-162940
-436121
-756940
-1.13565e+06
-1.54874e+06
-1.96252e+06
-2.37066e+06
-2.72825e+06
-3.01288e+06
-3.20869e+06
-3.34242e+06
-3.34441e+06
-3.21753e+06
-3.05823e+06
-2.80315e+06
-2.51923e+06
-2.18309e+06
-1.84742e+06
-1.5964e+06
-1.37067e+06
-1.02326e+06
-855994
-626068
-436288
-249010
-187143
-192792
-330318
-514586
-559670
-810057
-128670
211558
444299
680456
771545
772837
615691
397333
120477
-124794
-410601
-751383
-1.08631e+06
-1.49972e+06
-1.86052e+06
-2.23441e+06
-2.58163e+06
-2.87131e+06
-3.07191e+06
-3.14877e+06
-3.19893e+06
-3.13426e+06
-2.94119e+06
-2.69791e+06
-2.41557e+06
-2.16586e+06
-1.90625e+06
-1.58583e+06
-1.23081e+06
-1.09412e+06
-834247
-638270
-446620
-199412
-41370.9
31392.1
-11609.6
-187479
-261203
-594913
164054
686190
832482
1.03015e+06
1.02834e+06
918900
645669
375614
75386.5
-123072
-402636
-691106
-1.01664e+06
-1.3837e+06
-1.77161e+06
-2.15421e+06
-2.47448e+06
-2.77287e+06
-2.92195e+06
-3.02911e+06
-3.04075e+06
-3.02046e+06
-2.83518e+06
-2.62882e+06
-2.35978e+06
-2.07241e+06
-1.78896e+06
-1.6074e+06
-1.35707e+06
-1.0267e+06
-861357
-653103
-528486
-245155
8196.55
159586
213862
59692.4
16627.8
-376524
639114
1.17379e+06
1.21045e+06
1.29645e+06
1.14651e+06
891129
528427
264528
56756.7
-141292
-389374
-622326
-936868
-1.27371e+06
-1.64205e+06
-1.99883e+06
-2.31653e+06
-2.61014e+06
-2.7472e+06
-2.86485e+06
-2.84752e+06
-2.837e+06
-2.6571e+06
-2.48703e+06
-2.22958e+06
-2.00357e+06
-1.76328e+06
-1.48556e+06
-1.25022e+06
-1.08257e+06
-873346
-696316
-565139
-407311
-79669
187211
351522
314816
323323
-26905.6
931330
1.37532e+06
1.26643e+06
1.27097e+06
999074
715875
387030
203932
-46575.4
-305396
-374778
-554288
-843960
-1.18355e+06
-1.53884e+06
-1.89455e+06
-2.17306e+06
-2.49376e+06
-2.56155e+06
-2.72592e+06
-2.69713e+06
-2.7017e+06
-2.53589e+06
-2.37987e+06
-2.12245e+06
-1.88832e+06
-1.62919e+06
-1.4049e+06
-1.16595e+06
-952190
-811733
-745022
-553625
-488797
-259048
19599.9
276841
294851
418234
101005
1.33814e+06
1.56844e+06
1.41553e+06
1.28356e+06
948705
601761
233188
-23784.8
-326895
-395595
-192455
-414255
-730162
-1.04392e+06
-1.40943e+06
-1.73687e+06
-2.09e+06
-2.41325e+06
-2.45883e+06
-2.58413e+06
-2.54278e+06
-2.53345e+06
-2.36764e+06
-2.23629e+06
-1.96515e+06
-1.75518e+06
-1.49696e+06
-1.2515e+06
-1.00133e+06
-811366
-625172
-850722
-710769
-543133
-348325
-69483.9
253044
388076
556499
432172
1.40339e+06
1.42416e+06
1.0438e+06
868137
470826
179277
-82772.1
-249526
-306381
-218998
-176962
-568512
-879105
-1.18513e+06
-1.51564e+06
-1.81386e+06
-2.1597e+06
-2.4918e+06
-2.4778e+06
-2.59325e+06
-2.54761e+06
-2.54392e+06
-2.42088e+06
-2.27632e+06
-2.01093e+06
-1.80506e+06
-1.5783e+06
-1.3752e+06
-1.11024e+06
-898509
-606922
-680294
-740734
-719745
-591330
-437856
-123055
34053.7
352261
400062
-734512
-755083
-1.00084e+06
-1.16666e+06
-1.41486e+06
-1.54364e+06
-1.58995e+06
-1.519e+06
-1.39097e+06
-1.31256e+06
-1.7521e+06
-2.23667e+06
-2.6665e+06
-3.00372e+06
-3.27559e+06
-3.51609e+06
-3.69434e+06
-3.79272e+06
-3.65838e+06
-3.47037e+06
-3.3281e+06
-3.45948e+06
-3.6458e+06
-3.58059e+06
-3.33441e+06
-3.05198e+06
-2.67001e+06
-2.2245e+06
-1.63038e+06
-937192
-592040
-773427
-1.024e+06
-1.19973e+06
-1.15113e+06
-944216
-561254
-268104
81023.1
203280
-728940
-642799
-757225
-898787
-1.16861e+06
-1.41738e+06
-1.56121e+06
-1.57265e+06
-1.53505e+06
-1.36277e+06
-1.655e+06
-2.0851e+06
-2.50534e+06
-2.83898e+06
-3.06443e+06
-3.25994e+06
-3.40211e+06
-3.50607e+06
-3.41575e+06
-3.14041e+06
-3.00573e+06
-3.25769e+06
-3.36732e+06
-3.284e+06
-3.08877e+06
-2.83195e+06
-2.47401e+06
-2.00517e+06
-1.40628e+06
-896131
-693339
-1.01391e+06
-1.28038e+06
-1.28239e+06
-979841
-577567
-137937
113474
307382
259061
-963137
-742398
-812527
-881245
-1.11867e+06
-1.38394e+06
-1.6375e+06
-1.60187e+06
-1.62607e+06
-1.63661e+06
-1.81992e+06
-2.18201e+06
-2.53852e+06
-2.76337e+06
-2.76485e+06
-2.77133e+06
-2.78445e+06
-2.88713e+06
-2.92591e+06
-2.92303e+06
-2.7895e+06
-2.82154e+06
-2.7696e+06
-2.70492e+06
-2.63362e+06
-2.54671e+06
-2.42146e+06
-2.1142e+06
-1.64811e+06
-1.21801e+06
-1.08015e+06
-1.31451e+06
-1.43335e+06
-1.34567e+06
-864768
-454880
-64791.8
89832.4
223393
-5315.93
-1.10121e+06
-860528
-857655
-886438
-1.06799e+06
-1.33126e+06
-1.63305e+06
-1.75282e+06
-1.72986e+06
-1.7941e+06
-2.09619e+06
-2.30643e+06
-2.37648e+06
-2.68763e+06
-2.80601e+06
-2.73058e+06
-2.64338e+06
-2.68182e+06
-2.72406e+06
-2.71479e+06
-2.53644e+06
-2.53647e+06
-2.53294e+06
-2.55722e+06
-2.63391e+06
-2.7001e+06
-2.60404e+06
-2.3088e+06
-1.96587e+06
-1.77206e+06
-1.46952e+06
-1.4633e+06
-1.58829e+06
-1.22349e+06
-741682
-337619
-14484.9
77752.7
119088
-145517
-1.33485e+06
-1.1032e+06
-1.07065e+06
-1.03937e+06
-1.16021e+06
-1.37488e+06
-1.64966e+06
-1.85864e+06
-1.84556e+06
-1.79523e+06
-1.89677e+06
-2.26266e+06
-2.52931e+06
-2.6697e+06
-2.6082e+06
-2.79374e+06
-2.87592e+06
-2.95276e+06
-2.96672e+06
-2.92328e+06
-2.79784e+06
-2.81763e+06
-2.80698e+06
-2.82642e+06
-2.81214e+06
-2.55426e+06
-2.52005e+06
-2.55244e+06
-2.20434e+06
-1.70086e+06
-1.56065e+06
-1.62039e+06
-1.59767e+06
-1.17527e+06
-740109
-390372
-158678
-150367
-144821
-449346
-1.45881e+06
-1.33081e+06
-1.31447e+06
-1.28204e+06
-1.34894e+06
-1.52157e+06
-1.75787e+06
-1.98426e+06
-2.1054e+06
-1.9768e+06
-2.03099e+06
-2.13547e+06
-2.32732e+06
-2.61493e+06
-2.82274e+06
-2.88412e+06
-2.88818e+06
-3.10212e+06
-3.2787e+06
-3.33702e+06
-3.32822e+06
-3.19611e+06
-3.01789e+06
-2.83394e+06
-2.76728e+06
-2.75967e+06
-2.5366e+06
-2.2252e+06
-1.84193e+06
-1.67049e+06
-1.6385e+06
-1.85496e+06
-1.61647e+06
-1.21569e+06
-841230
-553950
-405690
-404730
-414511
-676915
-1.51776e+06
-1.44966e+06
-1.5245e+06
-1.54571e+06
-1.58883e+06
-1.72888e+06
-1.92827e+06
-2.15217e+06
-2.32594e+06
-2.37875e+06
-2.32432e+06
-2.42102e+06
-2.47141e+06
-2.61406e+06
-2.75539e+06
-2.91101e+06
-3.02957e+06
-3.27552e+06
-3.516e+06
-3.65264e+06
-3.56118e+06
-3.31489e+06
-3.13568e+06
-2.95167e+06
-2.75097e+06
-2.50865e+06
-2.28889e+06
-2.1478e+06
-2.07969e+06
-1.93063e+06
-2.094e+06
-2.00324e+06
-1.71195e+06
-1.34847e+06
-1.03348e+06
-791813
-679329
-642232
-676488
-871053
-1.47465e+06
-1.491e+06
-1.48307e+06
-1.64295e+06
-1.77083e+06
-1.93187e+06
-2.12352e+06
-2.33629e+06
-2.52725e+06
-2.62875e+06
-2.67975e+06
-2.68497e+06
-2.6617e+06
-2.7284e+06
-2.81639e+06
-2.91687e+06
-3.02621e+06
-3.28996e+06
-3.63017e+06
-3.81624e+06
-3.70688e+06
-3.43239e+06
-3.12949e+06
-2.8905e+06
-2.73121e+06
-2.57593e+06
-2.44629e+06
-2.34206e+06
-2.35025e+06
-2.37312e+06
-2.32264e+06
-2.15489e+06
-1.86283e+06
-1.53541e+06
-1.25068e+06
-1.01197e+06
-885767
-792306
-853752
-968837
-1.36416e+06
-1.50381e+06
-1.54119e+06
-1.62533e+06
-1.75381e+06
-2.042e+06
-2.27903e+06
-2.50369e+06
-2.70854e+06
-2.85354e+06
-2.92809e+06
-2.96523e+06
-2.93789e+06
-2.84591e+06
-2.7975e+06
-2.85894e+06
-3.01669e+06
-3.38512e+06
-3.78186e+06
-3.98632e+06
-3.87222e+06
-3.59004e+06
-3.20013e+06
-2.91462e+06
-2.76014e+06
-2.66578e+06
-2.65737e+06
-2.7172e+06
-2.73953e+06
-2.66268e+06
-2.56547e+06
-2.3348e+06
-2.03181e+06
-1.69406e+06
-1.37267e+06
-1.09219e+06
-918155
-844056
-939180
-985696
-1.30777e+06
-1.34487e+06
-1.57381e+06
-1.69691e+06
-1.69299e+06
-1.91523e+06
-2.32096e+06
-2.59195e+06
-2.8372e+06
-3.03576e+06
-3.17009e+06
-3.252e+06
-3.26852e+06
-3.24294e+06
-3.11347e+06
-3.06067e+06
-3.12121e+06
-3.46728e+06
-3.91706e+06
-4.23391e+06
-4.11639e+06
-3.84126e+06
-3.50968e+06
-3.27557e+06
-3.17817e+06
-3.15319e+06
-3.2067e+06
-3.17075e+06
-3.1129e+06
-2.98489e+06
-2.80389e+06
-2.5099e+06
-2.17156e+06
-1.78057e+06
-1.39368e+06
-1.10779e+06
-974909
-910362
-1.02035e+06
-881127
-1.79333e+06
-1.66561e+06
-1.78682e+06
-2.00039e+06
-1.81804e+06
-1.96957e+06
-2.2818e+06
-2.63992e+06
-2.905e+06
-3.15941e+06
-3.35098e+06
-3.50446e+06
-3.60073e+06
-3.65832e+06
-3.63348e+06
-3.63801e+06
-3.7004e+06
-3.98823e+06
-4.32522e+06
-4.57834e+06
-4.50884e+06
-4.26045e+06
-4.02973e+06
-3.84585e+06
-3.75774e+06
-3.71625e+06
-3.66927e+06
-3.5741e+06
-3.45959e+06
-3.26262e+06
-3.02311e+06
-2.66757e+06
-2.27877e+06
-1.8004e+06
-1.38575e+06
-1.22897e+06
-1.10966e+06
-909992
-844907
-623002
-2.25601e+06
-2.09548e+06
-2.15426e+06
-2.20786e+06
-2.17565e+06
-2.07443e+06
-2.35745e+06
-2.64537e+06
-2.93347e+06
-3.23445e+06
-3.497e+06
-3.73409e+06
-3.92392e+06
-4.08784e+06
-4.19697e+06
-4.26814e+06
-4.39743e+06
-4.6328e+06
-4.88645e+06
-5.06204e+06
-5.03739e+06
-4.83682e+06
-4.69226e+06
-4.5471e+06
-4.46086e+06
-4.33379e+06
-4.21128e+06
-4.03264e+06
-3.8389e+06
-3.56429e+06
-3.2498e+06
-2.8167e+06
-2.36167e+06
-1.81088e+06
-1.50799e+06
-1.43856e+06
-1.28847e+06
-863863
-548246
-497773
-2.6741e+06
-2.51372e+06
-2.5204e+06
-2.32376e+06
-2.45482e+06
-2.26654e+06
-2.42204e+06
-2.63835e+06
-2.91805e+06
-3.25501e+06
-3.59547e+06
-3.92286e+06
-4.21917e+06
-4.49006e+06
-4.72098e+06
-4.92398e+06
-5.09746e+06
-5.32498e+06
-5.52537e+06
-5.64317e+06
-5.62989e+06
-5.46928e+06
-5.35929e+06
-5.19436e+06
-5.03738e+06
-4.83509e+06
-4.64159e+06
-4.40357e+06
-4.16098e+06
-3.84641e+06
-3.4982e+06
-3.03023e+06
-2.53208e+06
-1.98987e+06
-1.74412e+06
-1.70632e+06
-1.54021e+06
-1.11484e+06
-882901
-1.02167e+06
-2.99986e+06
-2.83903e+06
-2.75124e+06
-2.66835e+06
-2.60581e+06
-2.56772e+06
-2.57277e+06
-2.69179e+06
-2.83905e+06
-3.2329e+06
-3.65429e+06
-4.0834e+06
-4.48679e+06
-4.86257e+06
-5.19953e+06
-5.50151e+06
-5.77321e+06
-6.01073e+06
-6.22036e+06
-6.32635e+06
-6.34145e+06
-6.20921e+06
-6.09225e+06
-5.90294e+06
-5.69839e+06
-5.43438e+06
-5.16984e+06
-4.86248e+06
-4.55686e+06
-4.19124e+06
-3.80051e+06
-3.29774e+06
-2.77741e+06
-2.25471e+06
-2.04869e+06
-1.92397e+06
-1.7726e+06
-1.47227e+06
-1.36519e+06
-1.49966e+06
-3.25686e+06
-3.05807e+06
-2.76366e+06
-2.79087e+06
-2.58753e+06
-2.79327e+06
-2.73128e+06
-2.79733e+06
-2.80598e+06
-3.1252e+06
-3.64877e+06
-4.20263e+06
-4.72452e+06
-5.20311e+06
-5.63612e+06
-6.02055e+06
-6.35392e+06
-6.62607e+06
-6.83604e+06
-6.93451e+06
-6.93058e+06
-6.7906e+06
-6.63299e+06
-6.39234e+06
-6.12359e+06
-5.79815e+06
-5.48085e+06
-5.14723e+06
-4.8463e+06
-4.51636e+06
-4.18755e+06
-3.72408e+06
-3.20825e+06
-2.65838e+06
-2.36945e+06
-2.18676e+06
-2.00856e+06
-1.82527e+06
-1.88777e+06
-2.10534e+06
-3.47659e+06
-3.24028e+06
-2.77921e+06
-2.72926e+06
-2.80662e+06
-2.86898e+06
-2.90887e+06
-2.89227e+06
-2.86445e+06
-3.07769e+06
-3.65426e+06
-4.27479e+06
-4.92499e+06
-5.50095e+06
-6.02115e+06
-6.48608e+06
-6.88578e+06
-7.20559e+06
-7.44791e+06
-7.56683e+06
-7.58059e+06
-7.45332e+06
-7.28988e+06
-7.02431e+06
-6.71253e+06
-6.33253e+06
-5.94836e+06
-5.55698e+06
-5.21569e+06
-4.89556e+06
-4.6147e+06
-4.18282e+06
-3.66139e+06
-3.12875e+06
-2.74587e+06
-2.44621e+06
-2.19753e+06
-2.09278e+06
-2.31093e+06
-2.58161e+06
-3.62115e+06
-3.3623e+06
-2.79149e+06
-2.65602e+06
-2.9001e+06
-2.8884e+06
-3.04737e+06
-3.00711e+06
-3.02482e+06
-3.15019e+06
-3.73012e+06
-4.41428e+06
-5.10681e+06
-5.77465e+06
-6.35816e+06
-6.8804e+06
-7.31637e+06
-7.65738e+06
-7.9001e+06
-8.00617e+06
-7.99632e+06
-7.83488e+06
-7.60725e+06
-7.26457e+06
-6.86761e+06
-6.41356e+06
-5.98011e+06
-5.59111e+06
-5.34211e+06
-5.21275e+06
-5.2102e+06
-4.90866e+06
-4.32499e+06
-3.60681e+06
-3.10934e+06
-2.65965e+06
-2.39278e+06
-2.3295e+06
-2.65181e+06
-2.99006e+06
-3.67413e+06
-3.44147e+06
-2.86666e+06
-2.67029e+06
-2.94892e+06
-3.11393e+06
-3.26775e+06
-3.26007e+06
-3.37801e+06
-3.48158e+06
-3.99798e+06
-4.63059e+06
-5.32345e+06
-6.00117e+06
-6.63502e+06
-7.20717e+06
-7.68753e+06
-8.06989e+06
-8.34511e+06
-8.48015e+06
-8.49367e+06
-8.35122e+06
-8.12682e+06
-7.76918e+06
-7.33088e+06
-6.81041e+06
-6.27678e+06
-5.80141e+06
-5.52011e+06
-5.58819e+06
-5.78972e+06
-5.50878e+06
-4.83005e+06
-4.08821e+06
-3.44795e+06
-2.88568e+06
-2.60124e+06
-2.45155e+06
-2.72902e+06
-3.22361e+06
-3.4773e+06
-3.32886e+06
-2.8633e+06
-2.65234e+06
-2.91443e+06
-3.26756e+06
-3.50852e+06
-3.60349e+06
-3.76258e+06
-3.92387e+06
-4.32003e+06
-4.88072e+06
-5.52553e+06
-6.21083e+06
-6.85066e+06
-7.44391e+06
-7.93135e+06
-8.31509e+06
-8.57984e+06
-8.6889e+06
-8.67031e+06
-8.47216e+06
-8.15817e+06
-7.68715e+06
-7.11633e+06
-6.45985e+06
-5.83851e+06
-5.36388e+06
-5.39332e+06
-6.09363e+06
-6.89519e+06
-6.63837e+06
-5.50704e+06
-4.31215e+06
-3.56691e+06
-2.96857e+06
-2.71781e+06
-2.26892e+06
-2.57471e+06
-3.14866e+06
-3.31538e+06
-3.11242e+06
-2.83712e+06
-2.59041e+06
-2.83967e+06
-3.30997e+06
-3.61868e+06
-3.75921e+06
-3.9227e+06
-4.18993e+06
-4.52807e+06
-5.02197e+06
-5.62562e+06
-6.30098e+06
-6.95858e+06
-7.57757e+06
-8.09484e+06
-8.50911e+06
-8.80721e+06
-8.94998e+06
-8.96863e+06
-8.81166e+06
-8.54383e+06
-8.10691e+06
-7.54324e+06
-6.83971e+06
-6.04619e+06
-5.43182e+06
-5.55699e+06
-6.57848e+06
-7.22795e+06
-6.61513e+06
-5.55925e+06
-4.48062e+06
-3.727e+06
-3.06726e+06
-2.78835e+06
-2.33307e+06
-2.34073e+06
-2.79312e+06
-3.21148e+06
-2.9604e+06
-2.7176e+06
-2.45268e+06
-2.75704e+06
-3.27678e+06
-3.48085e+06
-3.60636e+06
-3.78446e+06
-4.07195e+06
-4.45657e+06
-4.99677e+06
-5.61183e+06
-6.31835e+06
-6.97222e+06
-7.59179e+06
-8.10085e+06
-8.50196e+06
-8.7789e+06
-8.89453e+06
-8.88032e+06
-8.65624e+06
-8.28413e+06
-7.6936e+06
-6.91572e+06
-5.89838e+06
-4.77884e+06
-4.16059e+06
-5.25667e+06
-6.50294e+06
-7.07183e+06
-6.58917e+06
-5.19478e+06
-3.93836e+06
-3.22822e+06
-2.75541e+06
-2.54685e+06
-2.4983e+06
-2.79051e+06
-3.05658e+06
-3.36793e+06
-3.14467e+06
-2.77706e+06
-2.52447e+06
-2.82291e+06
-3.15255e+06
-3.28359e+06
-3.34738e+06
-3.48998e+06
-3.77113e+06
-4.20208e+06
-4.7962e+06
-5.46144e+06
-6.18282e+06
-6.85919e+06
-7.48823e+06
-8.01697e+06
-8.43748e+06
-8.74765e+06
-8.89849e+06
-8.93815e+06
-8.79266e+06
-8.53768e+06
-8.10229e+06
-7.55999e+06
-6.86256e+06
-6.12086e+06
-5.51579e+06
-5.41499e+06
-5.94934e+06
-6.20505e+06
-6.05646e+06
-5.28177e+06
-4.04561e+06
-3.31416e+06
-2.73371e+06
-2.69896e+06
-2.64097e+06
-2.76565e+06
-2.96315e+06
-3.54012e+06
-3.27387e+06
-2.72747e+06
-2.51472e+06
-2.78891e+06
-2.93939e+06
-3.107e+06
-3.08869e+06
-3.14952e+06
-3.46426e+06
-4.00213e+06