/*--------------------------------*- C++ -*----------------------------------*\
  =========                 |
  \\      /  F ield         | OpenFOAM: The Open Source CFD Toolbox
   \\    /   O peration     | Website:  https://openfoam.org
    \\  /    A nd           | Version:  11
     \\/     M anipulation  |
\*---------------------------------------------------------------------------*/
FoamFile
{
    format      ascii;
    class       surfaceScalarField;
    location    "100";
    object      phi;
}
// * * * * * * * * * * * * * * * * * * * * * * * * * * * * * * * * * * * * * //

dimensions      [0 3 -1 0 0 0 0];

internalField   nonuniform List<scalar> 
376000
(
0.00273721
-0.0638141
0.409859
0.469587
-0.552739
1.15057
0.637509
-0.27339
1.66837
0.970746
-0.449634
2.36734
1.18846
-0.316215
2.9637
1.37572
-0.27404
3.49438
1.34622
-0.0359021
3.75667
1.19202
0.0972282
3.93788
0.727203
0.42991
4.30379
-0.0691156
0.945397
10.4078
-0.741181
0.614811
17.5697
-1.10274
0.272394
22.9642
-1.20782
0.0211651
28.5644
-1.10159
-0.204333
34.5372
-0.835935
-0.376389
39.943
-0.460442
-0.49324
44.463
-0.0247399
-0.559349
47.7081
0.350471
-0.488337
47.9035
0.45085
-0.166351
41.7882
0.12383
0.318795
31.7734
-0.221199
0.373835
29.1698
-0.302778
0.0827712
35.4601
0.0460273
-0.457736
47.6082
0.614143
-0.705553
50.4002
1.05862
-0.58207
46.7475
1.33709
-0.41179
41.6667
1.42176
-0.208745
35.8462
1.25743
0.051085
29.5341
0.769072
0.369799
23.5785
-0.102317
0.823572
17.6292
-1.04072
1.07606
8.36348
-1.50449
0.275129
3.67556
-1.72482
0.0783268
3.85689
-1.75713
-0.0900822
3.82803
-1.52216
-0.372548
3.59871
-1.25796
-0.416763
3.01463
-0.855814
-0.574432
2.37147
-0.645238
-0.374747
1.6226
-0.151748
-0.622519
1.09249
-0.240439
0.463456
-0.566486
0.411352
1.15758
-0.613078
-0.634357
1.96994
-0.520952
-0.517751
2.88544
-0.218273
-0.926393
4.04236
0.143928
-0.850227
5.02294
0.529966
-0.822522
5.79452
0.681895
-0.341729
5.5388
0.266623
0.500639
6.27544
-0.204569
0.953687
8.97896
-0.436183
1.22426
15.8717
-0.695528
0.848486
24.076
-0.921375
0.437489
33.1083
-1.05267
0.0733764
42.7419
-1.08399
-0.241715
52.253
-1.00983
-0.509005
61.1449
-0.8718
-0.682381
68.7532
-0.742005
-0.736506
74.5196
-0.645067
-0.624697
77.6496
-0.416745
-0.410009
77.8605
-0.00261316
-0.0092274
72.1956
0.513825
-0.0457737
71.9183
0.949769
-0.348338
77.027
1.11794
-0.661684
78.3323
1.12223
-0.761269
76.0266
1.14598
-0.670373
70.4522
1.13511
-0.473572
62.809
1.02626
-0.180228
53.7187
0.809993
0.183045
43.7325
0.517305
0.601933
33.2821
0.227291
1.09415
23.2641
-0.116396
1.52479
13.7959
-0.833389
0.973069
6.38998
-1.22381
0.283072
5.67274
-0.852315
-0.673949
6.51012
-0.33204
-1.10636
6.43997
0.169388
-1.14796
5.51353
0.556098
-1.19489
4.35914
0.689541
-0.719086
3.05016
0.705799
-0.817279
2.03659
0.328064
1.15603
-0.260279
0.562203
1.65819
-0.490701
-0.556987
2.87223
-0.565903
-0.605171
4.18986
-0.57303
-1.10622
5.79359
-0.399742
-1.21431
7.26879
-0.191214
-1.22563
8.47465
0.271506
-0.983163
8.94494
0.662595
-0.00771202
6.73365
0.466454
1.14873
8.99858
0.213811
1.50575
15.7726
-0.155896
1.23613
25.1801
-0.520701
0.754586
35.696
-0.760151
0.257201
47.121
-0.847545
-0.180636
58.7838
-0.821927
-0.512857
70.1371
-0.723154
-0.721577
80.4448
-0.589765
-0.794224
89.4832
-0.447183
-0.694466
97.1663
-0.26871
-0.526303
102.882
0.0947443
-0.319298
106.125
0.554301
-0.440951
105.604
0.787363
-0.515262
103.468
0.880168
-0.688058
98.7013
0.939599
-0.76001
91.7921
0.973445
-0.664595
83.4584
0.960996
-0.458032
73.6241
0.868399
-0.133371
62.473
0.660824
0.323321
50.4823
0.293569
0.914173
38.3267
-0.11301
1.52152
26.806
-0.426621
1.91421
15.3964
-0.757816
1.25288
7.31513
-0.365592
-0.377361
7.23512
0.170441
-1.4414
10.0594
0.439163
-1.62989
9.34302
0.652832
-1.61031
7.96741
0.649657
-1.43762
6.30523
0.570304
-0.862308
4.51057
0.311833
-0.771367
3.02214
0.456798
1.59715
-0.448072
0.888541
2.3574
-0.897562
-0.283184
4.00791
-1.07056
-0.620142
5.77426
-1.17067
-1.21389
7.84822
-1.09677
-1.50334
9.94078
-0.918639
-1.62149
11.7817
-0.619944
-1.48676
12.9867
0.211267
-1.01356
13.2485
1.03351
0.256956
9.72788
1.26786
1.20135
13.5728
1.08886
1.33713
18.9906
0.615922
1.22205
26.3158
0.0403896
0.890603
37.0439
-0.480178
0.33983
49.0173
-0.737966
-0.222588
58.7424
-0.737142
-0.63417
67.7067
-0.59761
-0.815457
76.401
-0.40494
-0.763697
84.9792
-0.2097
-0.606706
92.3546
0.0520502
-0.472291
96.1963
0.45336
-0.69359
93.7832
0.787327
-0.708574
91.6406
0.996143
-0.768796
86.7241
1.12081
-0.776713
79.7294
1.14315
-0.617577
71.8297
0.998139
-0.29678
62.9978
0.58356
0.236773
53.4924
-0.0742246
0.91133
42.7718
-0.734153
1.53923
30.8649
-1.11754
1.79966
20.7464
-1.04402
1.77877
13.4241
-0.0994621
0.242001
8.08017
0.797807
-1.51309
14.3798
1.07725
-1.98415
14.0796
1.27004
-2.09765
12.8024
1.32998
-1.94186
10.8351
1.20796
-1.58248
8.56205
1.01224
-0.912814
6.27344
0.562467
-0.55831
4.27327
0.817367
2.36873
-0.318758
1.10234
2.93805
-0.822066
0.0446064
4.95132
-1.17713
-0.457117
7.22324
-1.46395
-1.14293
9.92592
-1.57488
-1.61749
12.8265
-1.5497
-1.87669
15.5766
-1.37777
-1.8811
17.7872
-0.983126
-1.59996
19.1083
0.156277
-1.00438
18.9509
1.35718
0.0212655
15.9866
1.93763
0.726743
18.0438
2.06721
1.11891
22.1138
1.80287
1.20077
27.535
1.23605
1.01695
33.3213
0.557909
0.614356
41.6422
-0.0234273
0.0551853
50.4251
-0.358799
-0.383554
57.5021
-0.491731
-0.51917
64.6471
-0.477638
-0.489977
70.6585
-0.148164
-0.636809
71.3592
0.405708
-1.04091
66.1609
0.649361
-0.770259
66.5711
0.627888
-0.601795
64.1915
0.418999
-0.454979
59.2254
-0.0612791
-0.0742465
53.5627
-0.710826
0.465336
45.6401
-1.36484
0.988101
35.5499
-1.88633
1.37674
28.4903
-1.99662
1.55823
22.9857
-1.57014
1.26338
17.6579
-0.136905
0.277507
14.1431
1.30593
-1.37957
19.2983
1.68368
-2.12733
19.9975
1.84513
-2.41864
18.9512
1.84914
-2.384
16.7895
1.69578
-2.06776
13.9593
1.36273
-1.52076
10.8942
0.991435
-0.786762
7.96902
0.453558
-0.260041
5.39193
1.08066
2.99717
-0.276235
1.28372
3.44715
-0.79813
0.398245
5.69122
-1.19234
-0.25812
8.39535
-1.59241
-0.960401
11.764
-1.847
-1.59283
15.5861
-1.96542
-1.99507
19.4503
-1.9338
-2.14793
22.9268
-1.73868
-2.01276
25.7094
-1.30321
-1.61835
27.5626
-0.348105
-1.04974
28.4457
0.819657
-0.379811
27.5053
1.73101
0.285233
27.093
2.21992
0.799165
29.2627
2.26291
1.08514
32.4017
1.83137
1.15028
35.7145
1.07168
0.956779
38.851
0.241841
0.590343
44.0396
-0.381931
0.205068
49.3908
-0.612152
-0.152446
51.451
-0.397377
-0.74321
50.5223
-0.0619442
-1.29015
49.1282
-0.172289
-0.544374
47.8119
-0.69214
0.0438867
46.0943
-1.34844
0.360266
42.5918
-1.97975
0.731811
37.919
-2.42037
1.01303
34.0416
-2.49137
1.14836
30.3589
-2.15067
1.06549
26.4688
-1.26898
0.644788
23.7593
0.265961
-0.179709
23.6377
1.70005
-1.27788
27.3879
2.20498
-2.08861
27.9375
2.37607
-2.55501
26.7951
2.36216
-2.68607
24.3514
2.17479
-2.48301
20.9649
1.83887
-2.01317
17.0452
1.36629
-1.31517
13.0747
0.969832
-0.629612
9.50785
0.455002
0.0206023
6.43552
1.35871
3.63227
-0.0435639
1.25517
3.69243
-0.301137
0.510132
5.43093
-0.932752
0.190596
8.83288
-1.44737
-0.651231
12.9736
-1.85234
-1.4108
17.8312
-2.1236
-1.95897
22.9648
-2.24652
-2.26488
27.8385
-2.21621
-2.27306
32.1426
-2.01748
-2.01971
35.6501
-1.6428
-1.58114
38.2894
-1.0223
-1.10247
40.0669
-0.154361
-0.564624
40.6721
0.7334
0.0514231
39.5731
1.30769
0.641461
39.1262
1.4527
1.12651
39.8426
1.11343
1.42867
41.5354
0.384579
1.44971
44.6469
-0.284263
0.988609
48.9251
-0.443428
0.1165
51.7772
-0.334187
-0.774356
52.5876
-0.314236
-1.24209
53.1329
-0.612337
-0.115171
48.9955
-1.17962
0.754156
44.8003
-1.67547
0.991492
42.3337
-1.8631
1.06075
40.221
-1.63131
0.913314
38.0368
-1.02047
0.659696
36.1437
0.00478297
0.187374
35.3302
1.2105
-0.50524
37.3524
2.15346
-1.24391
38.6474
2.62572
-1.92891
38.2154
2.81674
-2.5139
36.5718
2.77955
-2.78622
33.6563
2.56181
-2.75164
29.6616
2.17997
-2.38223
24.8847
1.66189
-1.76521
19.7378
1.08241
-0.98174
14.8156
0.739073
-0.494964
10.7652
0.347389
0.218404
7.19794
1.55932
4.13295
0.0885832
1.10562
3.85763
0.477589
0.119474
6.60948
-0.0135901
0.569732
6.85605
-0.989148
0.147594
13.2885
-1.58094
-1.01319
19.2369
-1.99796
-1.75975
25.8148
-2.26235
-2.23089
32.2085
-2.37928
-2.38541
38.1265
-2.37355
-2.23651
43.3251
-2.23446
-1.89628
47.6845
-1.98493
-1.47413
51.0926
-1.62135
-0.984169
53.2601
-1.07854
-0.458842
53.8766
-0.441946
0.15498
52.1891
0.0718193
0.800276
50.2773
0.332812
1.3649
49.678
0.298177
1.67187
51.7661
0.173769
1.28402
56.743
0.219623
0.192802
61.8126
0.116162
-0.592271
59.6594
-0.204227
-0.851294
60.1413
-0.412551
0.214114
57.6023
-0.443641
0.94984
53.6995
-0.285933
1.0096
51.6602
0.0840755
0.877485
50.7014
0.644345
0.530981
50.6708
1.37371
0.0862299
51.26
2.09109
-0.489729
52.4877
2.60389
-1.09492
52.2922
2.93327
-1.72026
50.946
3.09123
-2.29276
48.4673
3.03154
-2.70014
44.841
2.78576
-2.80827
40.1161
2.38485
-2.62299
34.4792
1.83552
-2.09346
28.2041
1.16486
-1.33471
21.7493
0.573079
-0.589235
15.9785
0.398072
-0.467609
12.2959
0.22738
0.261593
7.95029
1.6684
4.50657
0.456778
0.620304
4.33541
0.888941
-0.280321
9.30653
1.06118
0.391565
9.32902
0.198581
0.943418
9.97095
-1.00523
0.0617043
19.3151
-1.61548
-1.32911
27.7656
-2.01651
-2.03335
35.8034
-2.23582
-2.37776
43.4089
-2.33926
-2.33731
50.3497
-2.36253
-2.0517
56.489
-2.29611
-1.67795
61.722
-2.14136
-1.21871
65.7959
-1.88786
-0.722893
68.4273
-1.46906
-0.176602
69.2161
-0.877643
0.389833
67.6982
-0.203518
0.928121
65.7172
0.395566
1.3181
64.8995
0.787138
1.08702
67.0752
0.761135
0.350295
69.6577
0.381421
-0.119128
67.718
-0.091732
-0.291144
68.2961
-0.123502
0.364251
70.6875
0.34626
0.678512
71.3353
0.877322
0.686779
70.9141
1.45402
0.491041
70.6414
2.00524
0.117415
70.5631
2.46805
-0.334301
70.213
2.8004
-0.867809
68.6123
3.03098
-1.43651
66.0637
3.13354
-1.99371
62.5257
3.06358
-2.43512
57.9542
2.82749
-2.70571
52.3636
2.4349
-2.66713
45.8568
1.89589
-2.32949
38.5726
1.19535
-1.6166
30.7664
0.404374
-0.730372
23.0301
-0.0143785
-0.287523
17.1201
-0.0528285
-0.510613
15.5908
0.0562588
0.122645
8.82005
1.62675
4.59553
0.90617
-0.154638
10.9044
1.13527
-0.4843
16.156
1.40023
0.147989
16.2206
1.09374
1.1776
13.9372
-0.036571
1.225
16.7362
-1.0614
-0.430902
28.7892
-1.58853
-1.66543
38.548
-1.90077
-2.2427
47.8653
-2.0568
-2.36043
56.5757
-2.13791
-2.13393
64.4561
-2.15215
-1.79593
71.4305
-2.09472
-1.36407
77.3349
-1.94933
-0.904689
81.9727
-1.69176
-0.408208
85.1764
-1.27119
0.082335
86.584
-0.669154
0.510349
86.461
0.0537021
0.825464
85.8601
0.609039
0.734097
86.6853
0.64141
0.440472
85.921
0.434675
0.167825
79.0575
0.272461
-0.0215564
80.2226
0.438714
0.332269
86.467
0.939989
0.339127
90.3719
1.43597
0.343892
90.707
1.9166
0.133683
90.1954
2.30496
-0.213795
88.8766
2.60689
-0.647261
86.343
2.81631
-1.14728
82.7992
2.91084
-1.65301
78.3076
2.86912
-2.11986
72.8193
2.68701
-2.45289
66.3649
2.35407
-2.59205
58.9922
1.868
-2.39886
50.84
1.23072
-1.89373
41.9807
0.41005
-0.959065
32.6912
-0.290636
-0.112993
23.9655
-0.466136
-0.174358
20.9795
-0.472691
-0.500564
20.1149
-0.220587
-0.112227
10.7067
1.3198
4.43896
0.576212
-0.807567
17.7214
0.789069
-0.733382
24.2614
1.15498
-0.217908
25.5978
1.27507
0.98546
19.4432
0.662561
1.80772
18.6999
-0.421996
0.696064
28.2017
-1.11793
-1.07391
40.4405
-1.48501
-1.99993
51.3789
-1.68592
-2.29781
61.8945
-1.80177
-2.15071
71.5128
-1.8552
-1.85453
80.0921
-1.84246
-1.45509
87.5586
-1.74895
-1.03713
93.7655
-1.56184
-0.590087
98.6439
-1.25448
-0.168224
102.197
-0.821462
0.192176
104.249
-0.289517
0.446373
105.224
0.163753
0.431384
105.556
0.417205
0.3125
103.003
0.492092
0.190579
93.9654
0.563646
0.0145961
95.6781
0.812042
0.221109
102.985
1.15674
0.12304
107.385
1.54207
0.0665875
107.782
1.91617
-0.170179
106.687
2.22013
-0.500791
103.98
2.44734
-0.901744
100.072
2.57067
-1.34411
95.029
2.58219
-1.77874
88.9534
2.46202
-2.15009
81.8472
2.2072
-2.37033
73.8026
1.80028
-2.36755
64.8725
1.24542
-2.014
55.2473
0.524992
-1.31635
44.9577
-0.31877
-0.171741
34.2539
-0.81042
0.312152
27.2358
-0.901669
-0.114732
28.4481
-0.94874
-0.359561
27.2511
-0.758849
-0.158503
16.4665
0.658598
6.34751
0.255514
-1.15782
23.0901
0.410678
-0.956273
33.2829
0.703299
-0.564541
36.0116
1.17208
0.51547
27.0401
1.07457
1.92494
22.8454
0.237505
1.60594
27.8379
-0.589774
-0.240385
41.2268
-0.997906
-1.65135
53.6756
-1.22995
-2.14795
66.0535
-1.37348
-2.09613
77.4937
-1.45932
-1.84738
87.6325
-1.48461
-1.48459
96.5183
-1.43301
-1.11434
104.037
-1.29749
-0.718047
110.169
-1.06182
-0.364321
114.996
-0.733901
-0.0560134
118.541
-0.332986
0.15364
120.677
0.00631736
0.206639
121.235
0.270737
0.162224
118.774
0.437126
0.130832
110.077
0.566708
-0.00550726
111.796
0.845475
0.0679911
119.024
1.15199
-0.0756394
122.481
1.46797
-0.167602
122.265
1.76096
-0.41202
120.321
1.9889
-0.711943
116.713
2.14392
-1.07487
111.799
2.20068
-1.45712
105.594
2.15055
-1.81785
98.2519
1.97502
-2.09262
89.8157
1.67711
-2.20581
80.4237
1.23053
-2.05848
70.1417
0.660409
-1.56096
59.2541
-0.0519464
-0.672626
47.822
-0.657501
0.433065
36.828
-0.847241
0.445155
33.9326
-0.872073
-0.138252
38.0791
-0.924126
-0.234494
38.9926
-0.83659
-0.135379
28.608
-0.0201685
17.7024
0.0143468
-1.26026
28.6713
0.0666451
-1.09251
42.9076
0.234752
-0.79282
47.425
0.844016
-0.0493369
37.8607
1.15283
1.65446
28.3008
0.746483
2.08963
30.0132
0.00280264
0.632614
40.3894
-0.483226
-1.14298
54.4865
-0.73774
-1.90783
68.7781
-0.916756
-1.955
82.1986
-1.04081
-1.76263
93.8954
-1.11144
-1.4395
104.094
-1.10921
-1.12148
112.767
-1.03355
-0.773961
119.935
-0.873318
-0.480692
125.673
-0.644626
-0.217493
130.038
-0.355312
-0.0448006
132.864
-0.0812342
0.0340822
133.713
0.16873
0.0178079
131.695
0.386095
0.0209413
124.256
0.577642
-0.0915578
125.735
0.826564
-0.0677321
132.163
1.06887
-0.224068
134.794
1.31705
-0.343165
134.075
1.54074
-0.585621
131.544
1.71243
-0.86176
127.293
1.81885
-1.18767
121.635
1.83809
-1.51319
114.563
1.76194
-1.80404
106.254
1.57167
-1.98604
96.7928
1.2677
-1.99443
86.3366
0.823335
-1.70504
74.9871
0.283355
-1.0862
63.1805
-0.283861
-0.0991474
51.1153
-0.560822
0.726687
41.9141
-0.538355
0.405901
41.5328
-0.499764
-0.221721
48.5566
-0.487672
-0.217452
52.5959
-0.337042
-0.252627
41.6886
-0.371056
26.5951
-0.205138
-1.15621
34.5965
-0.241721
-1.12824
52.3904
-0.183099
-0.881539
59.0729
0.308038
-0.554222
49.523
0.976463
1.09223
34.2401
1.04323
2.12216
33.1539
0.577092
1.22299
39.9195
0.110429
-0.535942
53.135
-0.19904
-1.52159
69.7273
-0.427411
-1.70415
85.4671
-0.598746
-1.58711
98.8068
-0.72009
-1.311
110.261
-0.767635
-1.05447
119.963
-0.745528
-0.759079
128.05
-0.647166
-0.523995
134.558
-0.489687
-0.302048
139.543
-0.283058
-0.163863
142.839
-0.0756203
-0.0746094
144.048
0.128462
-0.0814376
142.449
0.331233
-0.0727406
136.151
0.515173
-0.165495
137.395
0.736604
-0.177176
143.138
0.942109
-0.330151
145.069
1.14257
-0.461667
143.87
1.31279
-0.69176
140.837
1.43542
-0.942667
136.074
1.49896
-1.23183
129.851
1.49007
-1.50954
122.119
1.40233
-1.74245
113.063
1.22289
-1.85059
102.809
0.946066
-1.77002
91.5196
0.544238
-1.35499
79.3917
0.101463
-0.66916
67.0295
-0.238437
0.270486
55.2093
-0.263246
0.798634
47.7109
-0.129608
0.303994
49.7627
-0.0850785
-0.277428
59.3584
-0.0512009
-0.252332
65.7288
0.0343758
-0.35563
53.5626
-0.363535
34.2248
-0.370581
-0.8969
39.9203
-0.500768
-1.05931
61.2349
-0.501828
-0.863997
70.4081
-0.225567
-0.805492
59.2702
0.593993
0.415043
42.7139
1.12526
1.68381
36.4567
1.06241
1.40052
40.5733
0.729894
-0.0230703
51.3857
0.351203
-0.973052
68.4663
0.054755
-1.30083
86.9945
-0.181117
-1.2972
102.373
-0.366426
-1.08625
115.092
-0.472193
-0.904648
125.7
-0.507348
-0.668507
134.567
-0.470092
-0.492557
141.695
-0.375152
-0.31457
147.155
-0.233997
-0.21108
150.785
-0.0743883
-0.131932
152.278
0.0917994
-0.139545
151.002
0.267869
-0.136697
145.535
0.432431
-0.216847
146.618
0.611082
-0.243381
151.796
0.770707
-0.388858
153.144
0.923469
-0.528778
151.505
1.05174
-0.749593
148.021
1.15104
-0.989755
142.826
1.21346
-1.25935
136.168
1.2356
-1.51531
127.956
1.20898
-1.71433
118.405
1.12311
-1.77609
107.645
0.939861
-1.60577
95.8942
0.606189
-1.04397
83.5338
0.231094
-0.295666
71.1886
0.0305689
0.50507
60.1773
0.121881
0.783307
54.0074
0.247404
0.234939
58.4711
0.260713
-0.259785
69.9605
0.308468
-0.283196
77.3488
0.347572
-0.425491
63.7881
-0.0836271
41.634
-0.479253
-0.533427
44.2991
-0.666648
-0.924915
68.778
-0.699788
-0.777742
80.6802
-0.615079
-0.813385
68.2859
0.0636936
-0.178928
51.5271
0.970044
0.907779
39.5893
1.39363
1.10029
42.0668
1.28713
0.27941
50.6966
0.874609
-0.334758
66.6332
0.477115
-0.7285
86.9638
0.175539
-0.884548
104.42
-0.058581
-0.773721
118.609
-0.210231
-0.68572
130.031
-0.286285
-0.519269
139.527
-0.294547
-0.401661
147.134
-0.246085
-0.26951
152.976
-0.15509
-0.198621
156.883
-0.038904
-0.136777
158.63
0.0899074
-0.150033
157.587
0.234135
-0.157567
152.684
0.372691
-0.229562
153.674
0.522425
-0.268572
158.47
0.653076
-0.403566
159.362
0.772817
-0.544186
157.375
0.866069
-0.7496
153.531
0.934674
-0.978425
147.967
0.977127
-1.23425
140.908
1.00931
-1.49324
132.231
1.03924
-1.70136
122.209
1.07536
-1.78115
110.92
1.01207
-1.52916
98.895
0.737776
-0.773903
86.8218
0.448182
0.00197845
74.7845
0.338107
0.655349
64.4329
0.397818
0.798481
59.6895
0.444424
0.26395
66.4326
0.412166
-0.166488
79.8721
0.454134
-0.29471
87.7645
0.535334
-0.543221
71.6502
0.349451
47.5983
-0.535049
-0.115774
47.3036
-0.716561
-0.79085
74.4937
-0.763894
-0.6611
89.6315
-0.774125
-0.696877
76.9368
-0.335565
-0.534737
58.4357
0.64227
0.0607717
44.7336
1.46389
0.402112
44.9296
1.62607
0.307718
52.6423
1.2614
0.268123
65.8002
0.789062
-0.0360727
86.4088
0.427721
-0.374383
105.34
0.154105
-0.392431
120.683
-0.0331797
-0.406569
132.791
-0.1431
-0.320834
142.776
-0.188792
-0.261264
150.729
-0.177248
-0.177701
156.862
-0.126097
-0.138207
160.976
-0.0458758
-0.098535
162.883
0.0466009
-0.117838
161.96
0.151839
-0.133208
157.349
0.250177
-0.197678
158.244
0.350013
-0.242616
162.806
0.430717
-0.366982
163.311
0.502398
-0.509237
160.961
0.560938
-0.711199
156.712
0.625801
-0.956712
150.69
0.713461
-1.24302
143.126
0.864502
-1.57117
133.881
1.10703
-1.87082
123.322
1.43652
-2.04068
111.4
1.60697
-1.65479
99.7177
1.38701
-0.540088
89.2034
0.934962
0.460347
78.5829
0.627615
0.99529
68.76
0.565398
0.93529
64.5024
0.50621
0.41631
73.5368
0.435
-0.0172708
88.832
0.51453
-0.338774
96.7825
0.718213
-0.768447
76.3035
0.963566
52.4688
-0.411417
0.196504
46.5392
-0.608932
-0.631918
77.6271
-0.674853
-0.525194
97.1111
-0.737896
-0.51677
85.0981
-0.484097
-0.682388
64.9598
0.221451
-0.554359
49.5034
1.02815
-0.292317
49.3982
1.28476
0.228345
58.1246
1.04333
0.694678
67.9462
0.720793
0.480637
87.0677
0.426345
0.0679459
105.499
0.220719
-0.0717924
121.105
0.0562292
-0.138777
133.551
-0.043926
-0.120085
143.92
-0.100871
-0.10041
152.181
-0.106433
-0.0603266
158.585
-0.077821
-0.0468799
162.882
-0.0187837
-0.0301602
164.916
0.0549618
-0.0563428
164.018
0.14282
-0.0789806
159.471
0.228167
-0.138116
160.327
0.31626
-0.188835
164.894
0.385636
-0.299775
165.216
0.439328
-0.432803
162.649
0.468763
-0.6152
158.105
0.487892
-0.854152
151.665
0.519296
-1.15272
143.509
0.648983
-1.57234
133.38
0.993361
-2.07383
121.599
1.49614
-2.41349
108.234
1.76977
-1.85325
97.3737
1.51469
-0.244506
88.9546
1.03252
0.96552
79.5899
0.743674
1.32145
70.3628
0.59266
1.16225
67.1364
0.431511
0.683063
78.713
0.279275
0.210463
95.9181
0.245689
-0.271714
103.667
0.15142
-0.625815
74.7547
0.991011
44.3635
-0.0995038
0.268055
40.2802
-0.407102
-0.344462
78.1422
-0.53224
-0.335901
102.493
-0.624035
-0.306031
91.6104
-0.517194
-0.647298
69.5353
-0.243132
-0.720603
51.1231
0.045777
-0.471054
53.0825
0.147956
0.244717
64.7467
0.29575
0.670786
70.4124
0.432576
0.462154
85.9914
0.323277
0.304046
102.767
0.193146
0.174776
118.506
0.0559252
0.106854
131.427
-0.0365997
0.0801166
142.243
-0.0986438
0.0718156
150.857
-0.115621
0.0748101
157.521
-0.104334
0.0675163
161.957
-0.0662608
0.0647487
164.006
-0.0195589
0.0367756
162.933
0.0326989
0.0147498
158.096
0.072218
-0.0318894
158.932
0.0967235
-0.0751344
163.795
0.0888087
-0.160078
163.933
0.0504374
-0.269908
160.985
-0.0134175
-0.43098
155.877
-0.0620017
-0.686566
148.609
-0.0199933
-1.07193
139.363
0.265649
-1.7195
127.788
0.827675
-2.47216
114.438
1.3438
-2.81062
101.315
1.67269
-2.07727
93.9283
1.73254
-0.185162
87.9354
1.24401
1.52389
80.6311
0.686125
1.92192
72.1367
0.326526
1.57908
67.8901
-0.0181414
1.11211
83.8292
-0.299729
0.519526
104.642
-0.473281
0.0102077
107.401
-0.875425
-0.0336594
59.9302
-0.0166677
31.5396
0.179931
0.117733
33.5603
-0.0597009
-0.0554472
74.4619
-0.400356
0.0665444
105.358
-0.588725
0.011892
94.3896
-0.834786
-0.213514
68.3952
-1.00496
-0.452887
50.2435
-1.00403
-0.398391
53.567
-0.669903
-0.0168015
60.422
-0.108251
0.20135
67.8342
0.191159
0.251382
78.7191
0.235264
0.365503
93.4771
0.183888
0.341226
109.666
0.0820177
0.32297
123.932
-0.00651629
0.282909
135.913
-0.0724345
0.254281
145.39
-0.0969507
0.223465
152.621
-0.0904623
0.193699
157.381
-0.052905
0.16846
159.498
-0.0015426
0.135894
158.16
0.0624231
0.111002
152.685
0.125163
0.0675614
153.677
0.182417
0.0239183
159.317
0.212817
-0.0393946
159.658
0.207673
-0.119546
156.682
0.147607
-0.229409
151.415
0.0234539
-0.421035
143.907
-0.195942
-0.695404
134.181
-0.478315
-1.24092
121.716
-0.978122
-1.79079
107.449
-1.82591
-1.88426
98.233
-2.56315
-1.18086
95.3279
-2.56348
0.0900935
89.0092
-2.24552
1.33699
77.692
-1.7387
1.42312
72.4138
-1.07745
0.898599
76.1007
-0.593699
0.667719
94.809
-0.330951
0.287517
109.334
-0.352585
0.110562
110.974
-0.633121
0.415072
69.285
-0.653587
28.446
0.296215
-0.136243
30.8082
-0.0618679
0.378834
73.1707
-0.476382
0.550344
104.971
-0.744553
0.438782
92.5972
-1.13403
0.389629
64.9092
-1.34548
-0.15046
49.3668
-1.19204
-0.466671
53.0506
-0.697033
-0.424627
59.7603
-0.127489
-0.272158
67.8995
0.0807412
0.152731
79.8216
0.105946
0.455924
95.1946
0.0774043
0.48626
111.399
-0.00776778
0.521708
125.386
-0.0793942
0.468284
137.126
-0.135953
0.428081
146.445
-0.155538
0.368609
153.595
-0.15108
0.322635
158.283
-0.122204
0.281074
160.35
-0.0888275
0.252229
159.005
-0.0614642
0.238812
153.643
-0.0547462
0.213877
154.475
-0.0802501
0.192142
159.99
-0.175186
0.192015
160.057
-0.381411
0.217658
156.726
-0.761075
0.284251
150.857
-1.42226
0.397126
142.063
-2.50445
0.6125
129.488
-4.38857
0.851061
113.048
-7.2683
1.03505
103.516
-9.97026
0.874262
105.556
-11.0559
0.268037
104.572
-9.94457
-0.599407
97.7605
-7.39173
-0.997067
89.8553
-4.64658
-1.32025
86.591
-2.61018
-1.20575
91.714
-1.16988
-0.749067
105.673
-0.457968
-0.391317
114.346
-0.285529
0.00341905
112.055
-0.183316
0.384214
70.653
-0.849095
32.7747
0.174748
-0.31248
33.956
-0.312812
0.888138
76.439
-0.461828
0.76233
103.311
-0.620543
0.727192
91.9074
-0.623787
0.562622
67.4419
-0.298288
-0.356437
48.0062
0.229346
-0.851178
47.676
0.521289
-0.577225
56.0719
0.555493
-0.15892
70.0092
0.464519
0.392259
86.047
0.324759
0.74063
102.609
0.166673
0.775523
118.662
0.0334068
0.774717
131.84
-0.0681045
0.685642
142.894
-0.13232
0.609877
151.65
-0.15568
0.516612
158.383
-0.146546
0.445967
162.854
-0.108964
0.383971
164.938
-0.0558093
0.348249
163.947
0.00362147
0.336033
159.301
0.0582691
0.317114
160.072
0.108364
0.293056
164.985
0.136415
0.311606
165.114
0.131513
0.365771
162.253
0.0870842
0.471216
157.3
-0.0286701
0.659054
150.231
-0.22031
0.970861
141.103
-0.643965
1.48497
129.141
-1.47543
2.09655
114.677
-2.72582
2.28756
101.264
-3.66969
1.36532
94.4282
-3.95463
-0.134747
89.6522
-3.34297
-1.41203
84.5124
-2.1506
-2.42001
77.9539
-1.05789
-2.23395
78.8202
-0.341448
-1.38255
94.1537
-0.0814372
-0.605129
106.97
-0.0627539
0.0119831
109.613
-0.00912786
0.363289
75.0484
-0.865147
38.2823
-0.425567
0.0110909
47.1075
-0.644875
1.07565
78.2105
-0.652522
0.832581
98.5922
-0.704836
0.897047
87.1429
-0.48652
0.476712
65.4067
0.202309
-0.914645
46.6755
0.910331
-1.42531
44.7757
1.04716
-0.544819
53.1498
0.742431
0.359588
71.0271
0.416949
0.887231
90.0693
0.20307
1.08957
106.979
0.0222439
1.07033
122.058
-0.111924
1.01045
134.412
-0.202151
0.877648
144.756
-0.250398
0.76501
152.956
-0.257712
0.639142
159.249
-0.235068
0.546911
163.427
-0.188495
0.468872
165.344
-0.131675
0.430913
164.319
-0.0775123
0.424912
159.793
-0.0383692
0.420105
160.452
-0.0103308
0.398055
165.223
-0.0107889
0.438984
165.32
-0.038934
0.512535
162.508
-0.087146
0.632044
157.682
-0.130296
0.808779
150.874
-0.088718
1.03373
142.375
0.141153
1.36475
131.833
0.634619
1.74119
119.728
1.01439
2.05581
106.476
0.97865
1.54756
97.1729
0.334564
0.641334
90.3042
-0.323188
-0.619651
83.172
-0.526937
-2.06732
72.9653
-0.382862
-2.25954
68.6459
-0.167356
-1.46452
83.0783
-0.101058
-0.606966
100.162
-0.0100012
-0.0541165
105.296
0.086459
0.286699
73.9955
-0.868005
40.1671
-0.701941
0.576511
50.2796
-0.7452
1.06927
75.8677
-0.734432
0.880191
91.5729
-0.736188
1.00086
79.8423
-0.381062
0.228088
59.9764
0.4132
-1.53709
43.1021
0.97261
-1.84607
42.9667
0.960796
-0.3583
52.31
0.681817
0.842717
71.2705
0.392225
1.32951
90.5473
0.142958
1.45176
107.32
-0.06044
1.36346
121.765
-0.210839
1.2401
133.615
-0.303857
1.05503
143.47
-0.344329
0.898142
151.279
-0.337093
0.73515
157.248
-0.292932
0.616768
161.195
-0.219484
0.51881
162.942
-0.128583
0.472793
161.799
-0.0298007
0.463515
157.133
0.0610686
0.468685
157.816
0.150852
0.441641
162.785
0.223193
0.496472
163.135
0.278427
0.579719
160.632
0.311111
0.716268
156.213
0.317329
0.91141
149.971
0.318243
1.13695
142.189
0.34818
1.43475
132.581
0.512401
1.6778
121.661
0.792164
1.86994
109.11
0.933623
1.46446
97.7248
0.957725
0.651737
87.6399
0.812514
-0.424149
78.1837
0.546147
-1.72059
68.3418
0.519239
-2.09584
61.7054
0.569614
-1.35607
69.5418
0.513423
-0.434286
86.2486
0.499297
0.015687
95.4206
0.497779
0.254633
75.289
-0.474437
47.2969
-0.57301
1.01392
46.5131
-0.662742
1.09634
70.2024
-0.661482
0.919154
83.0319
-0.607455
1.01706
71.5122
-0.0473199
-0.253713
53.5635
0.728297
-2.12019
38.1973
1.01251
-1.97814
40.8465
0.844169
-0.00628109
51.5588
0.513543
1.35627
70.8553
0.193388
1.77344
89.8598
-0.0788697
1.80381
106.108
-0.291815
1.63291
119.739
-0.432001
1.4379
130.988
-0.503826
1.19405
140.34
-0.516389
0.989327
147.744
-0.478995
0.789397
153.376
-0.404784
0.64668
157.059
-0.304615
0.53281
158.564
-0.189796
0.481437
157.171
-0.0719946
0.470839
152.159
0.0297064
0.492777
152.85
0.132164
0.456891
158.169
0.218315
0.522291
158.718
0.299589
0.599557
156.362
0.372382
0.734713
152.126
0.446492
0.915432
146.149
0.538444
1.11239
138.732
0.672328
1.35758
129.756
0.873163
1.52844
119.676
1.12108
1.67141
108.425
1.1963
1.43061
97.0957
1.00313
0.872267
86.0335
0.622379
-0.011205
75.4772
0.299543
-1.30692
64.4181
0.308537
-1.93743
56.1044
0.413519
-1.29656
61.2175
0.390973
-0.306872
76.6002
0.41301
0.0484886
86.4428
0.431703
0.213836
70.3022
-0.118764
44.8068
-0.405395
1.28885
41.3995
-0.473152
1.09421
62.5014
-0.466131
0.918272
73
-0.298028
0.870942
62.3126
0.458101
-0.875014
44.9321
0.991816
-2.51919
33.8803
0.88974
-1.72555
38.3637
0.540733
0.519259
51.1731
0.1686
1.86294
70.3555
-0.139778
2.14661
88.3114
-0.398041
2.08619
103.298
-0.581687
1.83833
115.99
-0.689067
1.57508
126.611
-0.725303
1.27514
135.448
-0.700337
1.02543
142.46
-0.624884
0.79145
147.749
-0.511405
0.626322
151.141
-0.370212
0.496668
152.346
-0.209838
0.436757
150.619
-0.0407266
0.419054
145.093
0.104801
0.466392
145.869
0.251872
0.423826
151.724
0.382468
0.500638
152.654
0.506547
0.573218
150.589
0.611148
0.717461
146.652
0.69019
0.90793
141.004
0.738064
1.1218
133.917
0.760601
1.37419
125.331
0.759725
1.55423
115.612
0.761864
1.67824
104.749
0.672566
1.51757
93.2526
0.482668
1.05494
81.3276
0.238774
0.252254
69.5251
-0.00218791
-0.990424
57.8453
0.0632451
-1.85209
48.8599
0.294428
-1.3739
51.3792
0.365893
-0.290674
64.5425
0.361893
0.101612
74.4439
0.30261
0.253226
62.3846
0.123078
39.3478
-0.202425
1.37071
35.5736
-0.18265
0.996764
53.4
-0.139496
0.832651
61.7692
0.236063
0.458831
52.6205
0.971042
-1.49644
34.6282
1.13935
-2.57505
29.7578
0.687116
-1.13519
36.0067
0.143584
1.21903
51.128
-0.256648
2.31465
69.6525
-0.559587
2.44457
85.6496
-0.789026
2.29541
99.265
-0.934867
1.97194
110.941
-0.996247
1.63918
120.814
-0.983407
1.28634
129.069
-0.90739
0.994792
135.659
-0.783421
0.733213
140.575
-0.623859
0.550885
143.631
-0.444209
0.414743
144.465
-0.246663
0.347874
142.287
-0.0522881
0.333151
136.04
0.100592
0.421843
136.939
0.26577
0.361323
143.484
0.420762
0.44133
144.823
0.581496
0.494598
142.998
0.734676
0.632859
139.305
0.869566
0.822078
133.913
0.974757
1.04757
127.161
1.04051
1.31881
119.091
1.0482
1.542
109.973
0.991912
1.71724
99.8249
0.811251
1.67828
88.8805
0.480871
1.36873
77.2392
0.0354546
0.714672
65.3598
-0.369225
-0.491302
52.9489
-0.421461
-1.66071
42.761
-0.177433
-1.47785
42.4646
-0.0140669
-0.385197
53.6646
-0.00211881
0.110788
62.7593
0.00707486
0.246817
52.573
0.145142
32.2954
0.0589363
1.20151
29.2727
0.187927
0.786853
43.4413
0.336527
0.620355
49.864
0.934178
-0.188188
41.7791
1.38165
-1.99502
27.5465
1.0928
-2.24203
25.6598
0.24927
-0.139676
34.6862
-0.422711
1.94331
52.0033
-0.794932
2.64706
67.9568
-1.06849
2.65342
82.0059
-1.24263
2.4029
94.1216
-1.32883
2.00785
104.604
-1.3281
1.61111
113.569
-1.25613
1.21499
121.114
-1.12517
0.891931
127.179
-0.95326
0.614528
131.642
-0.74912
0.422438
134.291
-0.525565
0.283178
134.673
-0.273208
0.199721
131.955
-0.0128437
0.176398
124.87
0.16866
0.342334
126.012
0.350085
0.279243
133.309
0.53206
0.350663
135.221
0.722167
0.381234
133.748
0.909904
0.506588
130.39
1.07196
0.698424
125.342
1.19082
0.944778
119.032
1.24834
1.25094
111.582
1.22519
1.53322
103.148
1.1148
1.77498
93.7114
0.887481
1.84379
83.4232
0.524978
1.67154
72.3135
0.0528309
1.15548
60.6695
-0.48141
0.117283
47.696
-0.777651
-1.27515
36.7993
-0.701401
-1.50068
34.4528
-0.496677
-0.568002
42.4055
-0.449704
0.103883
49.9727
-0.368718
0.220328
41.0753
-0.176282
24.7683
0.394632
0.692397
23.3023
0.640769
0.485378
33.0121
0.979196
0.231691
37.819
1.57948
-0.83396
29.7811
1.57039
-2.07773
22.069
0.700973
-1.39874
22.8752
-0.442407
1.0804
36.5854