/*--------------------------------*- C++ -*----------------------------------*\
  =========                 |
  \\      /  F ield         | OpenFOAM: The Open Source CFD Toolbox
   \\    /   O peration     | Website:  https://openfoam.org
    \\  /    A nd           | Version:  11
     \\/     M anipulation  |
\*---------------------------------------------------------------------------*/
FoamFile
{
    format      ascii;
    class       volVectorField;
    location    "100";
    object      U;
}
// * * * * * * * * * * * * * * * * * * * * * * * * * * * * * * * * * * * * * //

dimensions      [0 1 -1 0 0 0 0];

internalField   nonuniform List<vector> 
128000
(
(-120.612 -20.5838 2660.98)
(5.95799 138.202 3989.25)
(-252 385.946 3917.26)
(-198.069 594.293 4261.29)
(-277.67 787.958 4366.95)
(-297.824 878.45 4375.68)
(-283.809 946.486 4112.45)
(-197.155 909.302 3844.01)
(-241.464 545.496 3836.16)
(-278.759 -318.119 8774.24)
(-28.9776 -468.42 13554.7)
(169.246 -486.588 16650.2)
(264.137 -451.174 19671.6)
(299.187 -373.78 22758.9)
(281.536 -250.056 25371.7)
(232.979 -109.077 27412.1)
(154.389 49.9001 28729.9)
(46.0228 163.99 28353.6)
(-134.442 133.443 24464.2)
(-221.875 -24.5803 18506.1)
(-115.636 -176.856 17006.9)
(-50.8454 -212.079 20784.5)
(136.857 -10.53 28180.8)
(87.9408 238.846 30349.2)
(-115.716 320.011 28815.9)
(-298.182 359.394 26459.5)
(-438.805 361.219 23612.5)
(-519.873 308.969 20328)
(-546.947 184.514 17084.3)
(-519.323 -67.1686 13622.5)
(-141.41 -337.871 7079.81)
(864.851 -224.74 3162.74)
(1083.56 -285.006 3707.17)
(1179.17 -374.312 4152.48)
(1160.65 -362.133 4469.14)
(1048.2 -350.125 4390.93)
(816.18 -260.992 4200.09)
(563.109 -301.766 3707.44)
(293.957 -73.262 3668.54)
(150.045 -108.164 2903.88)
(41.2204 -57.5822 3996.39)
(349.613 33.3584 4638.87)
(256.904 327.602 5197.12)
(306.481 467.879 5929.49)
(159.92 661.643 6251.06)
(103.931 647.63 6286.8)
(-153.31 528.334 5322.68)
(-203.964 23.8827 5585.66)
(-168.14 -402.437 7392.86)
(-151.472 -605.879 12117.9)
(-45.1357 -527.977 17165.2)
(83.0987 -483.016 22312.2)
(190.829 -399.514 27463.5)
(295.86 -289.228 32260.8)
(357.325 -171.542 36509.6)
(381.92 -75.9162 39944.5)
(368.036 -0.683269 42370.4)
(328.82 -10.7004 43451.2)
(241.538 -53.6215 43121.4)
(13.0059 -119.351 39825)
(-128.023 3.92075 39678.6)
(-114.831 278.314 42670.1)
(-101.958 454.617 43836)
(-78.1556 458.376 43226.6)
(-129.566 423.361 40926.7)
(-211.341 370.701 37498.3)
(-308.01 289.156 33163.4)
(-403.578 158.92 28102.5)
(-492.848 12.1368 22436.5)
(-561.601 -149.883 16599.3)
(-648.822 -267.931 10591)
(-219.608 -251.497 5224.32)
(537.169 -314.748 4904.54)
(867.356 -169.18 6243.59)
(980.965 90.3696 6970.12)
(936.753 186.359 6831.49)
(689.452 366.021 6353.03)
(515.495 304.951 5436.23)
(184.314 413.626 4721.33)
(109.004 123.702 3879.13)
(-244.177 -323.05 3884.55)
(257.166 -261.315 5171.21)
(154.358 30.5582 6166.21)
(336.868 198.762 7219.67)
(296.534 360.253 7889.87)
(270.822 403.383 8171.12)
(171.632 326.312 7785.97)
(-270.184 68.675 5365.14)
(-364.626 -280.874 6748.36)
(-397.599 -458.543 11097.2)
(-231.246 -381.293 16699.4)
(-31.6859 -307.753 22461.1)
(135.309 -250.357 28390.3)
(235.567 -191.611 34151)
(305.202 -102.005 39528.5)
(341.229 -22.665 44216.7)
(326.802 31.067 48212.9)
(278.748 32.5492 51574.4)
(203.414 29.8597 54066.4)
(102.455 14.5885 55492.1)
(-5.07067 179.375 55225.9)
(-92.3914 269.609 54375.5)
(-61.5451 345.861 52386)
(-48.0312 383.845 49449.1)
(-83.3845 372.149 45863.4)
(-157.118 322.976 41485.8)
(-254.475 235.841 36288.6)
(-344.585 124.675 30416.7)
(-426.474 -32.8349 24121.2)
(-513.182 -256.536 17788.1)
(-625.849 -444.905 10875.9)
(-257.375 -366.614 5451.01)
(276.465 -247.712 5660.86)
(554.55 263.201 8743.88)
(645.877 340.392 8986.41)
(559.066 392.256 8622.83)
(374.288 416.257 7825.61)
(182.792 217.243 6595.23)
(-139.393 314.043 5381.44)
(-237.037 -254.871 3617.63)
(-173.454 -531.07 4235.84)
(307.642 -398.02 5875.72)
(339.327 -138.859 7194.33)
(498.206 27.3207 8515.04)
(527.272 175.954 9583.24)
(515.073 239.337 10249.2)
(429.319 224.215 10328.3)
(227.061 117.92 9744.3)
(-417.362 -115.343 6699.06)
(-592.007 -141.775 8816.46)
(-582.378 -70.6913 11706.1)
(-413.159 -58.5959 15550.6)
(-185.689 -47.3555 21076.2)
(85.8397 -53.4858 26910.6)
(268.66 -40.2819 31351.4)
(353.017 -2.44901 35320)
(358.305 60.4639 39130.3)
(308.174 75.4581 42922.4)
(218.558 87.5973 46213.8)
(139.217 76.9035 47912.1)
(85.0728 199.385 46730.5)
(9.28096 324.691 45869.3)
(-24.0678 401.508 43805.5)
(-68.3368 435.807 40828.8)
(-132.992 413.249 37461.5)
(-193.553 350.083 33616.6)
(-237.138 212.61 29348.3)
(-256.695 -41.7551 24267.4)
(-274.622 -361.462 18236.1)
(-296.732 -606.182 12786)
(-365.768 -691.48 8732.38)
(-204.589 -488.622 5563.89)
(218.692 381.11 10547.6)
(395.259 558.359 11178.1)
(398.494 641.89 11117.2)
(323.934 649.849 10424.5)
(165.183 601.556 9264.74)
(-11.7205 416.491 7786.71)
(-298.271 378.833 6221.93)
(-477.274 -133.943 4161.17)
(-258.049 -724.695 4320.91)
(174.007 -577.424 6156.62)
(298.372 -298.957 7839.02)
(528.662 -126.193 9568.64)
(639.226 21.7498 11155.3)
(693.557 91.2435 12372.4)
(661.517 103.336 13042)
(541.324 44.2114 13061.4)
(278.941 -9.63633 12193)
(-379.81 84.2742 9789.67)
(-629.254 160.5 10489.7)
(-748.553 223.921 12343.6)
(-707.103 228.715 14817.3)
(-510.601 231.697 17400.4)
(-221.213 235.271 21191.8)
(74.6441 197.482 25065.6)
(232.187 151.635 28080.7)
(291.78 77.1655 31168.4)
(264.081 35.1879 33782.4)
(241.788 22.0212 33986.7)
(172.788 250.788 31532.9)
(37.0763 330.161 31852.6)
(29.6174 331.619 30964.6)
(52.4068 307.589 28929.6)
(93.2974 184.821 26603)
(138.834 -52.0201 23201.6)
(140.52 -360 18561.1)
(97.9805 -644.346 15280.4)
(72.6147 -839.596 12771)
(0.546333 -781.269 10224.6)
(-56.961 -579.62 8613.82)
(-8.45258 409.779 12387.8)
(123.898 716.602 13652.1)
(209.746 830.673 13879.5)
(199.005 856.32 13319.8)
(130.665 786.54 12124.3)
(-16.5223 650.815 10485.8)
(-178.698 395.337 8632.58)
(-482.036 282.455 6674.08)
(-718.276 -249.142 4327.47)
(-280.281 -817.141 4307.27)
(124.536 -561.967 6167.5)
(277.766 -337.622 8093.42)
(519.41 -193.235 10234.3)
(697.647 -54.0079 12380.3)
(803.364 14.9963 14245.9)
(829.889 28.0603 15621.1)
(766.218 -10.6745 16429.1)
(614.103 -87.9243 16643.6)
(357.223 -70.3684 16349.4)
(-83.3854 44.0074 15189.3)
(-469.261 180.835 14380.2)
(-684.205 272.098 15001.6)
(-779.78 312.481 16127.8)
(-714.552 281.421 17327)
(-469.944 230.085 18478.3)
(-151.216 162.548 20606.5)
(99.7915 23.4167 22807.5)
(220.497 -55.2139 23569.4)
(326.817 34.4 23051)
(348.756 264.227 22404.6)
(191.843 194.434 21905.2)
(209.914 16.9135 21295.6)
(298.21 -191.175 19935.9)
(338.459 -467.439 18051.6)
(339.341 -717.842 16516.1)
(334.092 -849.23 15101.8)
(283.432 -824.117 13543.6)
(169.341 -670.761 12563.9)
(31.54 -285.33 13076.1)
(-118.783 452.636 15740.7)
(-100.404 804.799 16860.1)
(20.2754 973.499 17110.9)
(81.2293 1029.59 16579.6)
(78.5723 982.493 15343.2)
(20.5747 847.045 13528.5)
(-103.928 636.184 11368.4)
(-222.1 373.499 9169.1)
(-545.604 221.827 6959.09)
(-869.199 -264.527 4478.81)
(-258.884 -895.659 4035.27)
(-132.487 -426.367 5227.88)
(172.155 -272.602 7685.41)
(423.782 -185.24 10318.5)
(663.074 -73.0458 13075)
(829.272 -4.7674 15647.6)
(919.586 8.07107 17757.1)
(917.237 -27.7512 19328.5)
(834.268 -99.9479 20341.5)
(668.619 -166.515 20855.9)
(473.858 -162.159 20948.4)
(195.806 -110.17 20539.2)
(-163.316 -17.2934 19398)
(-431.424 58.3863 18642.9)
(-582.197 77.6726 18534.6)
(-591.763 17.3321 18951.8)
(-447.207 -93.718 20057.6)
(-143.066 -191.003 21719.8)
(99.1985 -134.999 22808.3)
(265.741 92.5739 23063.9)
(390.739 253.867 23300.2)
(159.35 -13.2578 21593)
(79.1625 -318.721 19900.3)
(151.602 -520.927 19020.5)
(209.647 -636.627 18357.7)
(220.054 -620.189 17702.8)
(132.935 -498.391 17224)
(-1.46561 -273.342 17328.7)
(-161.644 150.646 18882.4)
(-260.082 579.015 20198.5)
(-264.916 854.927 20806.9)
(-146.815 1064.29 20857.7)
(-41.4688 1147.84 20229.2)
(22.141 1128.52 18911.2)
(29.1893 1004.5 16948.3)
(-16.6037 800.685 14469.2)
(-103.633 523.15 11792.9)
(-152.184 280.244 9406.34)
(-513.42 118.361 6962.32)
(-962.216 -305.243 4477.44)
(-178.441 -863.712 3761.27)
(-161.464 92.3864 5897.54)
(-239.105 -37.1378 5473.78)
(226.952 -88.913 9775.09)
(543.022 -25.4279 13150.1)
(767.373 27.3785 16497.4)
(917.846 38.342 19368.5)
(970.256 2.82292 21707.2)
(944.272 -80.8253 23489.3)
(854.326 -170.089 24751.6)
(719.265 -242.601 25519.9)
(554.749 -292.049 25719.4)
(354.992 -312.249 25271.7)
(77.7972 -310.941 23890.1)
(-203.259 -313.559 22521.9)
(-398.993 -339.13 21851)
(-476.881 -341.344 22434.8)
(-337.21 -278.759 24315.9)
(-78.6796 -4.09662 26275.2)
(121.788 254.771 25251)
(280.858 256.338 25453.1)
(72.6888 -100.861 24486.4)
(-133.702 -322.412 23011.3)
(-178.92 -345.396 22385.6)
(-243.104 -267.645 22298.4)
(-293.226 -105.089 22696.6)
(-366.568 122.413 23470.6)
(-428.217 426.864 24626.2)
(-440.715 683.442 25245)
(-390.5 896.481 25437.8)
(-279.282 1084.7 25148.5)
(-152.275 1192.98 24302)
(-37.9051 1192.88 22831.7)
(35.1246 1103.15 20727)
(50.6188 911.774 18020)
(20.3712 647.171 14867.7)
(-0.994127 330.691 11782.8)
(39.8164 174.262 9888.23)
(-364.502 31.7883 7011.31)
(-1000.01 -320.876 4375.09)
(-243.649 -452.613 3873.35)
(-141.32 418.462 7646.27)
(-331.569 284.93 6996)
(-374.027 112.931 6872.77)
(287.886 20.911 12426.2)
(617.142 95.9565 16767)
(836.274 106.368 20429.5)
(944.714 82.8184 23534.9)
(953.728 -0.257688 26072.8)
(903.34 -113.42 28076.9)
(821.79 -217.258 29581.5)
(701.988 -311.149 30539.9)
(555.683 -387.943 30888.1)
(373.525 -444.808 30515.3)
(133.563 -455.306 29259.5)
(-138.106 -435.487 27934.6)
(-383.284 -359.962 27210.8)
(-420.454 -150.229 27811.4)
(-252.672 170.058 28658.5)
(-45.1736 223.448 27750.6)
(87.9253 166.216 27986.2)
(-0.653175 -163.859 29078.6)
(-248.573 -178.965 29579.4)
(-361.388 -71.3644 29714.9)
(-466.789 99.9006 30006.9)
(-521.268 303.369 30480.7)
(-555.379 513.48 30938.7)
(-532.147 702.222 30959.4)
(-461.813 882.235 30653.3)
(-355.213 1044.26 29955.7)
(-224.457 1146.28 28795.3)
(-82.2231 1183.54 27106.3)
(34.0488 1122.65 24854)
(104.132 975.254 22003.5)
(111.969 720.663 18576.5)
(94.571 388.515 14811.5)
(149.538 75.2195 11832.9)
(223.813 89.2351 11671.9)
(-62.5925 -76.8468 7210.18)
(-1005.6 -289.131 4051.75)
(-252.783 367.884 9175.57)
(-123.071 598.577 12319.3)
(-361.549 439.189 11408.8)
(-553.141 130.371 9055.63)
(-325.794 -67.5919 10259)
(366.164 78.9521 16542.6)
(674.334 167.983 20996.9)
(856.111 170.069 24845.6)
(903.631 110.953 28120.1)
(873.488 -1.65987 30816.3)
(810.643 -117.425 32990)
(715.117 -229.957 34642.6)
(597.834 -324.368 35752.2)
(450.403 -400.17 36305.8)
(273.525 -439.6 36206.3)
(67.3528 -417.112 35587.1)
(-157.221 -327.955 34894.7)
(-295.678 -117.811 34873.5)
(-287.261 62.8168 34310.3)
(-143.197 74.5388 31449.7)
(-82.3621 90.0217 31924.7)
(-121.127 -47.5678 34533)
(-272.488 58.3312 36339.9)
(-393.98 142.517 36832.4)
(-490.825 297.543 37099.6)
(-520.099 457.829 37144)
(-510.361 622.342 36790)
(-452.923 784.247 36101.2)
(-363.257 926.72 35067)
(-241.398 1037.37 33620.1)
(-101.879 1092.07 31718.2)
(30.0417 1084.27 29310.8)
(130.071 972.542 26381.2)
(177.363 774.54 22860.9)
(157.32 455.02 18784)
(157.781 71.3013 14635.1)
(292.615 -71.3569 13685.2)
(408.621 24.9711 14146)
(290.453 -123 8152.31)
(-837.858 -280.72 3596.88)
(-6.67629 482.631 13656.8)
(-27.5124 528.99 17290.6)
(-198.687 376.877 16965.9)
(-543.724 79.8313 11992.4)
(-594.509 -137.338 10874.2)
(-40.7566 -24.9759 15565)
(483.663 168.287 21143.7)
(725.025 241.634 25662.7)
(823.155 215.046 29664.1)
(812.014 114.258 33028)
(765.78 -0.766124 35788.7)
(683.925 -115.716 37998.4)
(584.357 -214.821 39662.7)
(457.657 -292.594 40812.7)
(313.835 -340.502 41499.7)
(153.192 -336.549 41687.9)
(-9.39848 -278.66 41564.4)
(-116.715 -126.926 41303.3)
(-153.09 -8.08625 40043.7)
(-150.401 70.0642 36406)
(-103.341 111.506 37073.7)
(-212.865 72.3116 40041.6)
(-282.345 159.141 42011)
(-360.155 237.319 42558.1)
(-414.707 374.901 42646.8)
(-417.968 513.188 42209.5)
(-394.273 658.349 41392.8)
(-327.568 790.418 40185.8)
(-230.844 902.3 38591.9)
(-110.139 979.442 36560.8)
(19.8204 995.637 34073.6)
(131.14 946.926 31079.1)
(208.457 785.312 27584.3)
(216.749 539.258 23500.8)
(159.068 141.814 18863.6)
(198.934 -192.181 15844.3)
(386.745 -163.792 17617.2)
(546.308 -112.246 18127.9)
(510.877 -185.936 11844.3)
(-244.031 -332.279 4975.09)
(185.181 503.157 16738.5)
(93.7951 488.657 22425.9)
(-12.3785 313.487 22657)
(-378.869 70.9666 15984.1)
(-711.338 -191.191 12751)
(-433.051 -160.075 14773.9)
(217.413 118.899 20815.1)
(561.69 292.501 25919.2)
(704.813 309.004 30659)
(717.581 226.253 34713.6)
(685.446 114.45 38030.4)
(617.147 -0.661585 40726.8)
(535.246 -99.1345 42830)
(427.816 -175.564 44396.9)
(312.322 -222.843 45509.6)
(180.586 -226.334 46218.1)
(56.8653 -193.949 46494.3)
(-46.3418 -98.2818 46290.3)
(-82.6847 -31.3212 45078.4)
(-135.399 48.1178 41649.2)
(-111.848 87.0542 42300.8)
(-183.361 114.85 45177.6)
(-230.747 214.207 46763.6)
(-280.824 288.793 47096.6)
(-310.429 412.037 46901.9)
(-299.115 526.498 46181.4)
(-264.184 648.911 45045.5)
(-192.795 754.112 43460.7)
(-99.4508 837.148 41446.8)
(10.0147 880.58 38965.1)
(121.233 863.175 36012.1)
(199.719 775.823 32539.9)
(241.153 570.529 28597.2)
(181.753 282.497 24122.6)
(74.2766 -155.637 19514.5)
(125.074 -277.437 18921.2)
(332.854 -175.958 22504.1)
(420.797 -149.407 24620.3)
(405.036 -207.402 19391)
(204.217 -227.952 13003.1)
(276.846 469.591 19743.1)
(200.848 410.114 27567.5)
(143.559 260.834 28571.7)
(-155.256 68.1185 21534.9)
(-663.846 -199.774 15227.6)
(-648.183 -245.837 15382.5)
(-127.069 30.4315 19793.4)
(371.486 314.627 25553.8)
(560.715 387.33 31045.3)
(602.271 320.863 35850.4)
(587.667 215.346 39717.6)
(535.899 99.7535 42853.9)
(473.694 1.58381 45331.3)
(386.354 -75.7468 47228.2)
(298.502 -125.954 48626.7)
(194.45 -138.628 49590.3)
(104.99 -124.415 50087.5)
(20.2019 -61.9454 49972.6)
(-19.4128 -8.93198 48934.4)
(-81.3236 54.3965 46036.9)
(-86.7295 112.308 46584.4)
(-152.765 149.007 49111.6)
(-179.359 235.358 50374.3)
(-209.742 303.075 50538.2)
(-219.46 409.012 50159.3)
(-199.097 504.899 49246.9)
(-159.563 608.693 47889.1)
(-90.2652 692.986 46043)
(-5.65449 757.238 43730.6)
(87.2027 778.939 40928.4)
(173.858 741.121 37636.7)
(216.241 624.558 33821.8)
(218.6 395.477 29600.3)
(101.399 79.5175 24994.4)
(-11.0855 -256.995 21458.7)
(42.5777 -210.693 22337.8)
(242.114 -75.2809 27573.5)
(248.386 -63.2289 31749.6)
(263.777 -67.0878 26859.5)
(208.422 22.0822 18363.5)
(310.387 392.085 22796.5)
(305.129 303.089 32343.9)
(241.902 202.237 34317.3)
(104.347 76.0923 27181.7)
(-467.083 -203.849 17879.4)
(-745.585 -282.229 16497.4)
(-399.69 -48.716 19018.5)
(110.464 314.232 24319.2)
(383.578 447.311 30736.6)
(457.222 395.191 36428.6)
(464.086 293.872 40879.9)
(430.762 176.94 44433.8)
(390.034 80.1471 47239.1)
(322.444 2.90677 49423.9)
(258.576 -48.2453 51058.1)
(175.842 -67.9483 52207.9)
(109.796 -65.9401 52843.8)
(37.2748 -29.5632 52845.3)
(5.41407 7.59029 51966.8)
(-49.5664 59.6876 49530.8)
(-61.0552 114.079 49983.5)
(-106.114 161.234 52220.8)
(-121.451 242.3 53219.9)
(-134.433 308.749 53223.1)
(-129.485 403.096 52688.6)
(-99.9475 485.279 51628.6)
(-55.9674 572.655 50112.5)
(9.85278 637.87 48079.5)
(80.208 683.253 45551.4)
(148.299 682.873 42518.9)
(195.973 626.29 38981.3)
(189.69 482.744 34945.8)
(141.993 238.866 30605.9)
(-23.273 -58.8959 26261.6)
(-128.53 -261.144 23721.2)
(-74.5133 -116.982 25950.1)
(109.233 25.1328 32592.8)
(86.525 28.383 38208.3)
(106.804 49.5185 33105.2)
(104.56 109.187 22603.6)
(293.236 271.655 25357.1)
(366.136 189.19 36562)
(311.053 116.742 39678.8)
(280.179 64.7194 31630)
(-186.054 -200.206 21729)
(-678.233 -245.14 17682.7)
(-558.704 -65.5749 18872.1)
(-159.563 315.787 23015.1)
(159.168 464.084 29586.7)
(284.79 435.709 36375.6)
(325.235 343.478 41569.8)
(316.946 226.035 45547.5)
(303.543 131.751 48637.4)
(258.205 55.6807 51061.4)
(219.207 3.78063 52880.4)
(158.019 -20.0382 54167.5)
(112.961 -25.2087 54898.7)
(56.015 -2.85751 54990)
(29.3847 26.5191 54232.5)
(-15.4744 67.2156 52127)
(-30.0245 115.836 52515.5)
(-66.9032 155.541 54519.4)
(-74.8277 221.739 55302.4)
(-79.8283 277.755 55158.9)
(-68.232 355.508 54483)
(-38.9331 424.576 53297.6)
(-0.0679837 501.198 51662.5)
(53.654 562.047 49500.9)
(102.966 611.029 46845.3)
(141.871 618.261 43686.5)
(146.077 574.899 40046.3)
(95.0259 427.547 36013)
(27.3237 193.194 31798.3)
(-120.105 -62.2671 27956.5)
(-210.447 -169.108 26195.8)
(-139.459 11.8287 29693.1)
(20.7369 123.681 37344.5)
(3.87233 132.233 43593.4)
(28.1137 177.697 38108.6)
(-10.9658 161.039 26479.2)
(243.69 134.902 27311.9)
(390.442 96.0319 39958)
(347.365 42.3552 44342.8)
(361.62 29.8539 35616.8)
(103.683 -154.632 25602.6)
(-440.212 -188.39 18824.8)
(-589.5 -6.0744 19190.5)
(-362.802 337.461 22298.5)
(-99.0262 445.86 28318.8)
(83.5902 417.756 35790.3)
(170.475 341.65 41755)
(187.622 232.933 46244.3)
(202.912 146.853 49587.6)
(177.958 78.1102 52201.7)
(160.961 29.6272 54160.1)
(118.094 5.77487 55557.1)
(90.3581 -2.61469 56368.1)
(47.1496 11.115 56540.3)
(29.6552 34.3208 55869.8)
(-3.27807 69.8432 53988.2)
(-12.7026 112.753 54339)
(-36.4364 153.612 56185.1)
(-35.4839 214.898 56802.4)
(-27.8194 271.655 56544.4)
(-4.39584 343.883 55757.7)
(35.6185 410.087 54465.1)
(81.9254 481.068 52715.8)
(136.576 538.884 50421.1)
(170.356 587.355 47633.5)
(175.846 600.184 44322.4)
(106.905 563.082 40631.9)
(-15.9301 388.167 36791.2)
(-125.677 135.813 32800.2)
(-264.48 -62.3723 29357.6)
(-307.095 -100.99 28355.5)
(-206.4 51.398 33006.4)
(-69.0196 142.64 41652.3)
(-47.9734 154.309 48225.7)
(-36.5602 214.894 41640)
(-249.462 98.1468 29363.6)
(164.998 -13.7406 28489)
(377.074 21.2858 42355.7)
(334.9 -5.73699 48289.5)
(368.831 -26.0948 39398.9)
(259.476 -93.6333 28530.3)
(-123.273 -100.178 20925.7)
(-457.118 106.048 20181.4)
(-467.462 344.14 22815.6)
(-333.73 377.746 27585)
(-132.424 338.563 35113.5)
(14.7844 287.419 41608.5)
(67.1075 205.734 46496.1)
(114.518 134.496 50060.3)
(111.46 78.6197 52820.5)
(114.573 34.4386 54878.8)
(88.7194 13.3019 56360.5)
(74.8595 2.9384 57231.7)
(44.3763 11.647 57455.3)
(33.2937 28.5177 56831.1)
(9.94964 55.2626 55069.2)
(4.20243 87.0227 55382.7)
(-11.6752 116.352 57128.6)
(-5.86233 159.704 57606.1)
(5.26201 200.662 57225.5)
(29.7739 253.344 56305.2)
(65.3312 307.58 54862.4)
(102.393 375.913 52947.2)
(142.276 454.189 50464.5)
(153.02 550.313 47499.5)
(118.691 642.904 43969.4)
(-30.2433 672.38 40442.5)
(-233.848 494.94 37285)
(-319.55 246.375 33964.6)
(-354.395 12.3721 30845.6)
(-356.487 -50.2693 30142.1)
(-235.901 75.3728 35910.2)
(-86.7187 133.298 45473.4)
(-37.0281 183.665 52124.9)
(22.0686 303.529 43400.9)
(-429.662 94.9165 31619)
(33.9389 -90.9109 27551.1)
(336.445 25.9533 43439.1)
(292.284 -4.52011 51543.7)
(329.501 -40.1462 42979.4)
(325.154 -21.2049 31316.7)
(131.548 31.8185 22855.1)
(-150.851 179.671 21929)
(-366.707 288.741 24910.3)
(-379.108 153.586 28168.7)
(-274.24 140.848 35024)
(-90.9188 142.277 41279.9)
(-35.4723 117.78 46240.7)
(30.1228 77.128 49912.3)
(38.9922 46.8201 52798.8)
(56.9097 15.0626 54955.4)
(44.52 2.55239 56524.5)
(42.3909 -4.53154 57455.1)
(22.5331 4.73361 57721.9)
(18.0492 20.6636 57111.7)
(2.31584 46.8142 55386.1)
(1.12294 76.7495 55684.3)
(-6.98934 109.315 57418.6)
(4.96956 153.46 57828.9)
(26.6164 200.878 57375.2)
(66.0619 257.561 56356.7)
(125.391 321.615 54773.4)
(195.046 397.213 52653.5)
(274.802 490.163 49855.4)
(308.546 614.357 46436.6)
(249.68 762.701 42339.1)
(1.81944 771.281 39113.8)
(-339.784 481.352 36807.3)
(-522.011 94.9308 34033.5)
(-534.84 -106.251 31204)
(-447.722 -82.9011 30992.2)
(-282.815 -3.47831 37946)
(-123.612 62.6848 48421.1)
(33.0282 136.172 55005.3)
(164.055 272.255 41877.7)
(-421.893 -327.728 26245.7)
(-117.891 -38.3067 23600.3)
(223.484 35.0677 43275.1)
(220.961 -9.34331 53862.9)
(247.924 -62.7468 45843.7)
(315.995 9.35185 33250.9)
(265.815 87.5557 23419.3)
(148.134 111.012 23383.5)
(-96.4709 -6.86268 27521.2)
(-209.903 -176.077 28966)
(-252.226 -26.5532 34336.6)
(-128.521 27.2195 39952.4)
(-71.5963 59.3334 44977.4)
(-12.2959 27.2716 48835.7)
(4.02138 14.09 51892.6)
(26.4436 -14.0282 54181.1)
(23.0752 -20.329 55846.8)
(27.1229 -27.0852 56830.3)
(15.0727 -18.5067 57107.3)
(14.4222 -7.64528 56443.9)
(4.23944 10.3815 54629)
(6.74327 27.7774 54918.1)
(5.74811 45.522 56742.5)
(23.2133 63.8638 57082.4)
(48.0562 81.1271 56490)
(90.619 97.1623 55266)
(146.63 123.593 53378.3)
(213.344 173.613 50848.7)
(289.096 296.654 47495.4)
(339.768 537.855 43449.8)
(300.838 797.147 39378.9)
(95.0973 758.922 37485.8)
(-405.159 442.347 36157)
(-652.138 142.905 34245)
(-534.662 -99.6151 31750.6)
(-440.567 -167.194 31080.8)
(-243.544 -153.054 40056.4)
(-35.4323 -119.911 52317.9)
(167.631 -56.4372 56466)
(267.958 -42.488 33293.1)
(195.9 -453.969 18407.4)
(-110.788 -7.09714 19571.5)
(-1.98165 96.3521 41054.8)
(140.688 -24.4326 55095.3)
(176.65 -74.5678 47022.9)
(316.013 -31.1786 32587)
(394.055 -79.7246 22919)
(334.822 -166.121 23492.1)
(161.028 -290.245 25571.9)
(-25.0356 -199.762 27798)
(-102.259 -26.735 31318.2)
(-130.325 -34.0225 36219.7)
(-124.986 -13.2781 41496.7)
(-78.1757 -28.9647 45919.1)
(-54.6076 -32.8942 49445.9)
(-23.7604 -51.0227 52076.4)
(-16.1527 -50.9169 53966.2)
(-5.08216 -52.3654 55081.1)
(-10.9092 -39.7599 55395.4)
(-10.3516 -25.9961 54651.8)
(-19.6706 -4.86291 52627.3)
(-20.7858 16.5577 52969.7)
(-25.72 42.3632 55053.3)
(-15.2909 69.5232 55453.3)
(6.48203 101.083 54839.2)
(54.5904 134.897 53543.5)
(143.628 187.163 51551.5)
(289.44 262.413 48828.3)
(537.272 387.082 45125)
(789.796 508.544 40679)
(1001.87 391.972 38043.2)
(1033.87 -29.8042 37939.1)
(710.812 -585.491 36534.5)
(97.8338 -988.479 32900.5)
(-57.5488 -1085.41 31736)
(-114.716 -762.744 34667.4)
(-129.292 -539.443 45087.3)
(-79.8287 -267.203 54416.2)
(19.7632 -132.002 58043)
(19.198 -205.664 38266.8)
(384.97 -89.9652 16572.3)
(-108.388 96.5428 17972.1)
(-83.0728 43.6695 40358)
(6.10048 -190.594 54897.4)
(92.0106 -206.556 46145)
(191.471 -271.121 30940.4)
(390.989 -275.503 22515.7)
(423.155 -222.415 23271.5)
(316.488 -173.214 25298.7)
(100.171 -58.9971 27827.1)
(-70.857 -26.0067 31765.5)
(-95.1188 -63.8183 36889.2)
(-112.916 -47.1499 42152.7)
(-89.1554 -83.6734 46457.6)
(-72.4746 -82.8641 49886.9)
(-43.3096 -98.9632 52454.4)
(-31.7218 -91.0364 54311.1)
(-17.7145 -89.1114 55397.1)
(-18.4821 -73.8187 55691.5)
(-16.2716 -63.444 54944)
(-22.4033 -49.21 52956.7)
(-15.6923 -40.9612 53243.1)
(-11.0455 -31.5069 55282.9)
(9.38178 -38.5034 55589.2)
(41.322 -58.9066 54853.3)
(107.345 -116.976 53348.7)
(217.139 -208.486 50902.8)
(409.629 -388.817 47153.9)
(745.846 -625.747 41928.1)
(1364.93 -1116.42 39110.3)
(2126.73 -1857.39 40874.6)
(2545.08 -2477.99 41695)
(2467.88 -2657.69 40177.2)
(1913.61 -2253.04 38089)
(1345.54 -1543.03 37958.4)
(830.804 -820.208 41771.2)
(489.546 -471.931 50249.3)
(149.24 -90.9692 56913.9)
(120.969 -118.885 58600.9)
(-76.2651 -153.875 38966.1)
(267.126 148.433 19090.5)
(-101.649 246.754 19899.3)
(-99.1277 -248.007 42353.5)
(-100.906 -256.99 54291.8)
(-0.952532 -300.232 45997.4)
(18.8032 -294.87 32262.8)
(172.523 -122.274 21995.9)
(126.796 123.181 21015.7)
(20.78 232.387 23843.3)
(-29.3825 233.742 28811)
(-143.955 99.9332 34370.6)
(-215.198 -31.8427 39898.1)
(-192.336 -75.522 45042)
(-160.335 -119.778 48993.5)
(-122.482 -125.381 52133.2)
(-86.9461 -135.83 54468.3)
(-65.0958 -124.544 56154.1)
(-47.8435 -117.088 57146.9)
(-45.6017 -97.7521 57433.7)
(-46.0687 -84.5209 56797.2)
(-59.4895 -66.7987 55047.8)
(-64.51 -54.5779 55314.3)
(-76.1744 -37.1928 57157.2)
(-87.6664 -37.0681 57496.3)
(-109.371 -46.2692 56937.8)
(-131.245 -86.6228 55774.4)
(-177.277 -153.404 53965.9)
(-234.492 -294.775 51494.3)
(-344.195 -497.264 48019.3)
(-361.219 -808.611 43562)
(-98.6421 -1014.42 39375)
(570.545 -1010.53 37708.8)
(1187.7 -600.952 36890.9)
(1503.95 -358.719 35944.1)
(1296.94 56.4055 34333.3)
(936.159 156.101 36089.1)
(448.955 234.129 44987.7)
(211.133 113.531 53490.7)
(-19.2561 6.68471 57586.7)
(-38.2456 -140.994 41590.4)
(177.684 283.648 22443.2)
(133.11 33.0123 27887.4)
(-96.8902 -443.252 43770)
(-56.3322 -331.739 52326.2)
(-15.3982 -368.46 44011.9)
(43.9718 -283.793 31544.2)
(230.416 76.0122 21566.8)
(113.979 419.798 19885.4)
(-138.929 390.456 22777.5)
(-262.177 179.918 29457.5)
(-290.861 -31.4018 36221)
(-282.156 -135.573 41854.3)
(-239.765 -176.228 46604.3)
(-187.16 -205.979 50233.6)
(-140.737 -200.463 53105.7)
(-98.2271 -198.332 55235.9)
(-71.6877 -176.043 56761.9)
(-51.6431 -159.667 57647.9)
(-47.0149 -133.443 57872.7)
(-46.6136 -116.973 57217.7)
(-59.9027 -98.687 55498.3)
(-61.9668 -89.078 55727.1)
(-66.1548 -71.9227 57530.8)
(-69.4442 -75.23 57863.1)
(-78.0412 -84.5547 57323.2)
(-81.0613 -113.715 56203.6)
(-99.196 -149.34 54485.3)
(-125.895 -201.705 52234.5)
(-224.931 -247.238 49273)
(-400.104 -288.623 45721.5)
(-658.68 -262.738 41654.1)
(-615.486 -167.379 39049.1)
(-439.315 -38.6305 37390.6)
(87.9866 -2.27507 35606.8)
(515.17 343.27 32403)
(610.748 376.178 31707)
(346.328 296.888 40062.3)
(160.824 101.133 50557.9)
(15.3708 -12.8265 55864.4)
(-96.4656 -96.6054 41436.6)
(182.138 304.008 23771.1)
(99.4173 -233.486 30276.8)
(-67.4607 -442.6 43137.2)
(-37.1282 -366.925 49329.9)
(-47.4515 -402.525 40883.7)
(85.2477 -258.502 29293.1)
(323.709 259.156 20180.3)
(200.964 563.998 19306.2)
(-154.393 349.052 22666.1)
(-347.043 58.2819 29862)
(-386.983 -113.813 36767.3)
(-351.967 -211.364 42377.4)
(-285.506 -245.059 46907)
(-217.534 -268.478 50366.6)
(-156.678 -257.28 53075.9)
(-108.361 -246.894 55078.2)
(-76.4723 -217.15 56498.5)
(-56.9008 -192.975 57309.8)
(-54.4598 -159.782 57476.6)
(-60.9509 -137.659 56775.7)
(-84.4498 -113.654 54994.8)
(-102.066 -98.7137 55233.9)
(-120.433 -73.5231 57121.8)
(-148.27 -72.4461 57545.6)
(-185.541 -78.5525 57111.3)
(-225.828 -108.034 56129.5)
(-281.838 -151.436 54604.9)
(-333.468 -220.147 52606)
(-411.658 -292.3 49980.9)
(-476.939 -353.574 46867.5)
(-571.107 -319.109 43072.9)
(-493.345 -108.63 39638.4)
(-265.901 171.532 36638.6)
(7.76253 495.634 33806.9)
(339.822 753.309 30674.4)
(433.396 741.751 28860.5)
(211.078 596.23 33988.6)
(23.5702 338.748 44169.3)
(-101.595 172.338 51401.1)
(-178.498 90.3135 42817.2)
(64.8111 401.357 28493.9)
(-103.441 -308.572 28672.3)
(-117.221 -408.128 40782.7)
(-65.4606 -357.91 45629.5)
(-97.3629 -384.319 37296.4)
(145.957 -135.225 26611)
(375.336 512.66 18192.2)
(258.807 658.016 18648)
(-207.041 273.984 22673.6)
(-446.594 -87.8224 30094.4)
(-473.219 -257.322 36961.7)
(-404.8 -340.621 42418.8)
(-312.875 -361.08 46676.8)
(-224.793 -366.864 49949.7)
(-152.255 -339.297 52503.9)
(-96.4211 -311.888 54382.8)
(-60.9112 -267.035 55701.3)
(-40.5748 -229.817 56430.6)
(-38.9519 -185.096 56516.8)
(-47.0916 -155.024 55723.1)
(-73.2523 -123.044 53802)
(-93.486 -105.607 54046.5)
(-109.56 -74.0247 56075.3)
(-137.584 -66.6426 56571)
(-169.955 -62.5567 56179.3)
(-208.391 -73.0714 55246.8)
(-258.941 -93.2145 53795.3)
(-311.415 -120.385 51901.5)
(-390.858 -154.363 49477.9)
(-466.126 -170.038 46647.8)
(-571.606 -167.312 43328.8)
(-583.433 -63.637 39897.7)
(-461.42 48.1175 36463)
(-215.828 186.869 33108.5)
(168.843 425.203 29368.8)
(349.461 540.698 26690.1)
(150.837 437.816 30454.4)
(-50.0141 181.619 39965.5)
(-113.122 84.2707 47509.6)
(-171.62 63.0997 40861.4)
(-62.6457 193.089 27648.7)
(-284.479 -347.729 26291.1)
(-198.968 -358.632 37316.2)
(-139.705 -314.564 41135.7)
(-153.508 -324.869 33253.7)
(189.994 91.854 22852.5)
(374.944 737.714 16450.7)
(252.533 633.063 17863)
(-263.652 121.884 22920.7)
(-497.335 -269.162 30389.5)
(-499.023 -410.31 36910.7)
(-406.592 -471.396 41935.2)
(-297.816 -469.389 45897.1)
(-200.927 -454.783 48985.4)
(-121.987 -409.408 51392.3)
(-65.2547 -365.958 53163.3)
(-31.1415 -307.539 54384.3)
(-15.7272 -259.17 55027.1)
(-21.7297 -204.75 55013.9)
(-39.4495 -166.932 54095.8)
(-78.4725 -125.886 51968.5)
(-115.804 -104.107 52246.8)
(-139.299 -64.03 54491.8)
(-184.207 -52.0115 55125.4)
(-228.061 -43.284 54826.5)
(-283.97 -52.1023 53982)
(-344.771 -75.645 52621.3)
(-401.118 -112.328 50813.2)
(-459.349 -160.076 48490.7)
(-490.293 -197.27 45745.5)
(-505.305 -216.401 42516)
(-449.87 -153.222 38946.9)
(-291.52 -48.531 35065.3)
(-51.2763 137.735 31061.2)
(275.88 411.374 26887.2)
(465.041 545.264 23730.1)
(260.731 487.708 26134.6)
(1.87321 233.132 34478)
(-86.5924 118.288 41971.2)
(-125.296 67.2433 37274)
(-46.4554 103.309 25023.6)
(-424.229 -348.194 23434.9)
(-297.304 -280.482 32968.3)
(-238.372 -230.111 35881.2)
(-195.816 -185.438 28873.2)
(184.904 390.628 18087.8)
(368.343 860.584 14813.9)
(156.672 521.418 17166.2)
(-336.825 -80.7502 23410.6)
(-532.609 -465.935 30695.5)
(-491.042 -570.226 36496.7)
(-380.065 -609.762 41061.4)
(-258.984 -585.716 44701.5)
(-154.147 -547.291 47568.6)
(-71.8977 -480.805 49812.5)
(-15.5091 -416.888 51472.1)
(15.472 -340.476 52590.8)
(26.1873 -277.071 53134.4)
(14.6891 -208.156 52996.4)
(-6.37728 -160.097 51907.2)
(-51.063 -105.361 49488.2)
(-95.5013 -87.0668 49815)
(-118.543 -42.9534 52342.1)
(-169.038 -23.3967 53126.6)
(-211.82 -4.57348 52899.1)
(-275.253 3.17213 52115.8)
(-342.196 -7.08929 50810)
(-413.021 -27.865 49076.8)
(-486.307 -70.9752 46890.4)
(-539.354 -113.76 44311.3)
(-571.918 -165.496 41290.7)
(-540.484 -177.383 37864.6)
(-415.937 -159.803 34006.6)
(-186.426 -89.7406 29855)
(168.739 114.641 25209.6)
(476.417 324.406 21296.2)
(348.472 307.073 22188.7)
(54.5307 48.77 29500.2)
(-42.9379 -53.5374 36488.5)
(-64.352 -111.38 32500.6)
(-63.0082 -91.481 21347.3)
(-504.729 -295.386 20150.1)
(-396.751 -152.808 27917.5)
(-334.074 -116.821 30045.6)
(-224.693 72.1586 23713.9)
(130.126 674.175 14773.3)
(310.727 840.736 13135.9)
(20.0089 313.887 17015.5)
(-401.872 -380.496 24404.2)
(-510.174 -656.065 30665.7)
(-430.215 -734.509 35757)
(-307.175 -740.745 39804.2)
(-178.949 -690.281 43055.6)
(-72.3912 -624.902 45646.6)
(7.10161 -536.405 47686)
(57.8326 -453.762 49203.7)
(79.9218 -362.939 50196.7)
(81.9716 -289.159 50618.8)
(56.6854 -212.443 50326.3)
(25.3902 -156.348 49028.3)
(-40.5842 -91.6778 46260.6)
(-110.9 -71.9452 46682.9)
(-126.664 -22.2186 49529.9)
(-186.628 4.60376 50530.1)
(-229.14 31.6842 50413.6)