/*--------------------------------*- C++ -*----------------------------------*\
  =========                 |
  \\      /  F ield         | OpenFOAM: The Open Source CFD Toolbox
   \\    /   O peration     | Website:  https://openfoam.org
    \\  /    A nd           | Version:  11
     \\/     M anipulation  |
\*---------------------------------------------------------------------------*/
FoamFile
{
    format      ascii;
    class       volScalarField;
    location    "1000";
    object      p;
}
// * * * * * * * * * * * * * * * * * * * * * * * * * * * * * * * * * * * * * //

dimensions      [0 2 -2 0 0 0 0];

internalField   nonuniform List<scalar> 
128000
(
-150204
-146898
-185514
-172462
-223074
-225273
-265859
-274606
-285997
-275927
-251437
-223317
-198872
-180769
-171015
-182997
-194255
-204957
-210654
-199154
-202547
-210258
-199601
-193671
-195225
-213605
-237012
-272679
-304640
-342138
-357720
-367535
-341146
-328644
-273857
-259237
-201655
-188696
-158250
-125420
-153497
-116722
-154699
-143246
-181573
-200288
-241030
-279154
-309020
-324530
-305076
-269726
-231687
-202410
-175561
-186642
-202103
-216732
-232545
-222329
-229605
-235653
-215504
-205008
-210827
-241619
-285882
-333977
-378473
-413418
-414083
-390887
-340411
-295933
-230303
-202574
-141809
-142960
-89191.3
-92949.5
-189900
-158671
-161839
-157359
-180596
-195261
-228779
-261617
-298772
-331478
-333846
-300946
-261073
-230521
-192572
-206448
-211910
-220784
-227709
-218081
-227114
-229201
-220549
-214730
-211912
-266829
-312221
-369989
-410267
-432601
-411945
-374745
-317924
-274556
-221096
-193375
-158097
-141395
-123754
-143626
-179660
-147374
-158781
-137132
-162700
-180052
-218228
-262916
-306266
-352479
-377134
-356854
-310416
-280820
-232695
-247959
-245788
-258512
-252499
-255696
-258804
-269178
-269748
-268360
-275291
-323074
-383245
-434261
-473639
-479363
-439073
-380792
-311193
-257321
-189329
-163684
-108037
-112665
-92837.5
-102934
-230343
-192195
-184581
-169569
-165009
-179297
-201310
-243123
-286180
-341077
-372652
-376582
-339200
-309965
-275895
-268683
-270486
-259094
-262116
-257698
-271139
-279170
-290186
-294063
-306166
-349770
-405889
-452750
-482218
-467306
-415757
-349863
-284121
-226761
-178668
-150525
-127036
-139955
-126172
-164460
-227813
-207791
-199164
-185031
-180134
-186228
-204038
-239402
-279429
-330788
-372064
-382838
-356237
-340780
-319844
-324874
-309302
-313118
-291189
-291950
-299315
-311995
-328294
-325339
-349005
-373546
-425130
-462719
-480882
-459875
-400753
-337134
-267426
-215376
-165765
-146053
-124397
-131944
-128179
-148991
-265602
-250676
-233771
-227820
-206091
-207144
-206674
-229568
-261565
-292903
-348864
-339365
-341697
-315403
-320483
-313990
-328943
-299302
-295235
-288791
-291124
-305703
-315862
-332758
-335489
-361596
-391167
-416124
-429929
-402415
-354912
-296002
-244717
-199737
-172284
-159176
-152723
-171404
-167022
-204568
-263279
-279080
-263624
-266747
-248394
-242671
-232974
-236604
-255764
-273510
-304911
-312373
-308876
-300114
-306826
-310856
-312394
-304805
-298284
-285968
-297255
-294266
-318609
-311089
-332588
-332052
-357901
-366486
-377470
-358055
-321599
-276699
-237047
-203777
-187492
-176752
-184316
-187811
-196214
-213527
-266810
-301188
-293990
-309892
-288750
-281306
-260605
-254258
-252417
-259232
-269630
-275537
-257471
-254721
-272414
-281599
-291784
-281878
-278053
-281447
-271808
-283619
-287277
-298512
-301784
-298885
-307214
-308434
-336452
-312432
-293359
-257090
-235675
-214275
-212425
-212458
-223782
-230750
-241254
-254801
-245188
-298255
-317083
-340251
-341450
-330293
-295511
-266705
-260588
-253695
-263661
-252367
-270999
-231530
-260597
-262358
-280700
-274889
-281024
-271097
-286857
-272374
-288059
-272250
-285306
-270574
-291462
-297415
-310814
-290573
-277023
-250026
-241552
-228065
-240449
-240545
-266963
-262787
-278884
-266924
-216743
-265302
-298471
-351477
-354314
-356857
-337415
-299679
-261819
-249753
-246955
-236713
-248328
-225424
-255744
-253681
-264680
-263891
-261289
-266957
-263796
-272256
-272492
-280655
-281097
-275336
-277494
-289041
-290730
-276285
-268456
-251710
-252149
-249599
-268268
-278813
-302410
-299128
-306543
-282595
-190636
-228151
-257739
-308743
-333787
-355360
-320318
-282503
-268499
-250200
-247402
-232958
-243600
-231919
-248893
-253302
-264883
-258399
-262163
-257423
-269301
-262889
-275421
-267238
-278986
-268641
-283679
-279225
-283392
-267548
-264363
-248736
-256032
-254267
-279462
-287557
-322720
-309648
-317192
-277529
-168970
-192983
-224201
-274262
-303233
-326813
-315214
-282761
-234593
-231412
-237218
-220936
-227094
-214748
-230422
-226540
-239067
-238593
-241253
-248490
-252246
-262053
-265301
-273716
-278049
-282603
-287010
-288518
-287736
-275491
-270190
-257971
-262510
-262130
-280191
-306514
-330545
-319998
-315680
-272365
-157580
-166959
-188019
-230412
-268254
-308666
-297287
-283524
-254869
-234720
-233676
-230047
-229294
-224157
-231536
-230849
-239355
-236619
-243678
-241441
-251827
-251329
-264013
-265800
-280811
-282206
-295470
-291657
-292006
-273373
-267781
-247165
-255357
-247262
-282967
-291355
-324391
-300724
-297166
-251418
-159501
-159998
-183990
-222042
-255424
-300440
-299858
-285846
-257627
-232848
-249359
-223371
-224691
-209802
-217512
-213276
-220975
-221798
-227465
-235977
-243118
-258862
-270680
-288665
-300303
-310503
-317714
-317383
-312900
-293595
-280838
-256266
-259750
-259211
-283056
-290057
-308753
-281544
-277369
-236110
-177190
-182309
-194666
-228235
-251299
-302349
-302403
-296924
-276098
-259179
-254687
-248671
-233613
-227082
-226944
-224672
-228679
-225009
-230278
-229102
-239540
-245326
-263788
-278134
-300037
-314919
-334498
-336580
-328394
-302784
-283348
-261267
-251955
-256436
-271811
-263866
-269096
-240281
-242207
-209689
-179319
-188431
-199358
-231073
-248095
-290050
-296212
-286483
-267109
-250354
-246953
-232804
-223907
-209483
-209333
-205032
-207216
-208512
-211912
-222736
-234729
-263399
-294262
-332545
-353717
-366286
-376494
-376730
-367596
-336189
-304220
-272552
-268493
-263093
-269901
-259011
-256224
-228836
-229383
-200502
-190882
-205785
-207418
-236386
-242544
-284388
-279446
-283821
-266940
-263817
-258420
-250325
-237487
-227914
-224139
-218392
-218403
-212450
-213894
-212441
-223844
-237737
-269279
-300031
-330484
-365384
-409655
-424650
-396494
-344386
-311996
-277243
-261122
-249027
-251755
-235268
-236956
-212240
-212183
-170101
-174791
-197755
-201268
-228275
-237966
-266738
-269131
-263756
-251822
-245157
-235354
-227026
-217012
-207795
-200796
-194268
-187569
-183863
-179349
-187000
-203586
-260441
-343370
-424697
-442711
-434040
-438965
-440301
-434518
-381320
-322275
-277277
-258450
-244655
-245565
-231479
-227608
-216802
-210956
-166781
-175996
-196168
-197940
-237436
-245835
-274396
-272182
-268781
-262958
-258725
-254935
-246396
-238570
-229275
-223840
-214636
-210189
-200313
-193600
-186951
-193482
-218598
-273116
-319944
-350271
-387703
-428502
-438222
-400592
-332801
-284071
-243814
-234374
-224296
-228281
-208921
-208937
-190794
-161519
-113897
-179361
-204562
-209899
-237666
-250210
-285611
-269649
-270632
-242593
-250138
-233688
-231549
-216850
-207453
-193544
-182456
-164305
-147438
-124362
-116152
-127757
-225641
-361406
-466949
-484178
-452870
-427189
-405971
-379621
-317022
-273215
-233292
-229964
-226543
-236498
-218111
-208535
-181864
-162423
-119014
-184059
-210344
-208159
-250893
-272015
-298016
-299964
-283852
-271487
-257343
-255014
-245748
-239965
-229390
-223531
-214502
-207997
-197978
-188194
-182271
-185821
-216904
-283782
-358365
-399127
-426454
-467979
-450010
-394867
-327041
-279922
-240170
-236717
-230049
-240367
-220236
-213840
-188662
-178453
-140363
-175061
-195094
-197765
-245893
-265057
-304706
-294906
-291556
-264372
-253584
-244027
-236641
-222481
-213399
-202010
-196327
-186928
-182927
-178307
-186291
-209787
-273859
-369048
-455115
-489735
-475403
-448301
-433270
-427003
-353483
-317013
-267900
-266573
-254881
-263106
-239556
-229720
-191611
-193785
-156841
-179895
-196074
-192370
-253947
-286613
-314868
-320859
-298696
-280223
-253535
-256645
-244062
-236938
-227471
-223750
-217922
-215136
-211214
-209728
-212519
-222658
-244340
-279620
-323470
-363058
-389750
-422095
-410960
-363064
-319503
-293106
-265094
-267120
-261215
-271092
-249784
-238598
-198328
-193555
-170811
-190684
-216089
-226589
-277786
-301064
-337868
-316856
-304650
-269732
-251051
-245897
-236264
-224663
-218411
-211843
-210056
-207925
-209193
-213406
-223122
-241568
-269033
-308313
-343910
-372302
-375086
-378275
-358914
-354549
-305938
-293114
-252750
-272108
-270644
-288560
-272495
-263716
-219259
-219315
-189542
-214077
-257160
-278560
-348020
-372606
-387749
-362607
-323833
-276712
-250567
-239678
-235274
-228529
-223975
-221576
-219529
-219244
-218424
-219335
-223690
-229973
-242783
-259483
-280059
-301445
-314906
-327993
-323095
-307441
-286240
-263581
-248017
-256681
-267674
-295075
-295758
-297631
-258935
-244297
-208421
-243301
-301993
-332118
-398303
-411237
-429042
-376279
-331680
-271120
-261099
-245671
-236899
-225370
-221765
-219017
-219402
-220751
-222155
-227826
-232976
-245478
-256168
-275585
-285603
-304545
-303392
-315481
-301218
-306261
-278665
-276904
-253579
-261565
-281915
-308544
-324255
-332134
-296518
-281200
-234253
-276625
-345989
-380114
-442305
-460548
-460669
-405740
-342869
-289958
-274931
-248077
-236713
-225573
-224163
-222026
-222816
-223983
-223253
-223636
-227096
-230834
-239324
-247745
-255363
-266434
-269717
-278646
-274345
-276042
-263234
-261200
-251045
-268473
-267641
-311747
-324329
-344809
-314295
-303286
-253539
-307350
-382227
-405884
-464576
-455218
-453926
-390940
-343280
-291072
-270212
-244357
-235531
-227823
-226341
-228457
-230683
-232352
-232843
-236587
-235252
-248219
-249187
-262647
-259203
-273700
-264248
-279554
-263790
-280021
-261527
-269031
-257215
-270165
-285081
-307090
-325687
-344492
-325103
-320842
-274332
-331972
-392673
-402297
-436389
-421294
-408137
-355294
-313941
-273982
-257905
-236839
-234070
-225664
-231988
-231368
-235001
-239788
-238774
-240050
-237091
-240672
-243461
-248295
-246373
-252901
-246460
-254145
-246640
-261097
-251655
-256339
-245960
-258079
-256768
-289177
-293900
-320248
-305930
-311572
-278413
-332428
-370877
-361616
-381401
-352039
-343226
-299384
-278177
-252011
-245199
-235531
-237095
-238018
-235956
-246001
-251421
-253154
-251321
-255205
-251621
-265483
-249466
-262240
-252539
-267325
-249376
-264206
-236192
-272385
-256220
-264721
-247454
-252690
-247311
-262277
-266072
-284873
-280048
-290747
-275511
-324276
-327992
-313563
-311521
-289122
-278266
-249163
-240558
-229549
-234192
-233272
-241068
-228936
-246722
-245110
-248307
-252706
-250891
-253454
-255798
-255364
-251509
-255757
-249161
-255977
-240921
-251326
-237535
-260236
-263691
-264263
-244511
-239790
-224160
-230815
-228127
-240799
-240778
-250751
-256209
-285746
-271642
-253807
-248085
-225953
-219200
-207115
-213250
-219403
-234109
-241093
-246287
-244081
-246718
-255780
-260634
-259149
-259290
-256655
-260962
-266153
-255766
-272364
-267195
-284114
-270020
-283223
-260170
-281084
-279233
-284881
-257619
-244049
-220022
-213267
-203785
-211684
-210423
-217637
-231454
-266100
-223159
-214888
-195315
-180702
-177833
-177947
-195574
-214821
-234877
-254995
-246324
-252213
-260750
-263144
-259325
-262876
-248729
-254648
-246660
-257077
-256411
-268141
-265871
-281267
-272465
-287151
-284278
-302755
-304813
-307522
-270722
-246817
-213384
-195459
-182857
-177210
-189377
-182099
-211039
-205830
-166617
-167987
-144091
-146776
-147406
-169293
-197157
-227640
-262387
-271129
-279013
-281660
-280297
-275886
-273717
-263341
-264052
-255364
-253222
-267060
-266512
-282406
-282983
-298135
-292642
-301263
-305183
-329553
-339886
-339944
-306170
-267818
-232561
-197150
-180449
-163742
-166976
-163196
-176650
-200829
-148852
-153927
-127217
-133807
-142170
-169340
-200430
-240694
-270168
-291237
-294690
-286870
-275700
-261742
-248151
-248167
-236736
-242245
-230939
-250244
-253838
-265156
-260504
-270007
-267417
-280311
-294600
-322484
-343185
-347275
-318959
-280120
-240128
-203931
-179211
-157764
-166326
-151908
-180603
-139033
-101880
-122347
-91086.4
-129632
-137474
-184539
-221420
-264381
-300611
-316119
-315991
-306588
-282341
-254474
-248954
-239904
-241402
-237386
-232290
-241691
-245245
-255738
-251733
-253843
-248156
-247380
-272343
-303512
-334203
-351004
-336947
-302046
-269966
-221239
-201539
-156625
-154303
-138956
-138977
-152203
-117974
-126513
-116725
-151373
-159683
-204324
-227061
-269289
-293905
-305193
-301472
-282666
-252872
-230690
-217930
-219540
-220504
-225598
-216007
-217517
-220735
-228294
-225436
-223539
-220859
-212113
-235898
-263209
-293813
-323008
-322839
-298919
-273295
-237638
-214725
-189565
-173372
-158866
-172888
-110032
-73414.2
-117697
-101873
-154041
-162462
-214893
-244141
-285108
-302346
-305410
-292462
-270970
-248375
-224618
-224237
-219357
-225157
-231315
-225565
-215652
-217921
-225026
-223365
-210958
-203583
-186798
-207984
-235571
-266674
-299275
-320905
-312644
-296416
-254577
-234638
-185458
-182404
-137687
-132732
-110579
-111124
-152296
-139422
-199162
-194101
-248997
-251639
-281039
-274631
-272163
-255424
-240886
-223743
-215541
-206064
-204577
-209942
-217535
-208967
-208538
-207541
-214048
-213646
-208370
-200615
-188615
-192599
-208510
-229141
-251760
-279715
-285078
-295924
-270372
-266830
-229252
-216613
-196674
-164454
-530614
-531051
-557070
-560257
-600355
-617622
-654135
-669192
-675189
-652683
-598167
-516228
-403724
-242421
-78980.7
-124372
-216524
-289538
-338841
-346281
-344772
-217513
-33225.6
32713.1
-111691
-332690
-494520
-610840
-691552
-751350
-778152
-785694
-762473
-739912
-692241
-666483
-621052
-603402
-579896
-559355
-532168
-512699
-535509
-537650
-570814
-597862
-639487
-679261
-709186
-717780
-681689
-604917
-485733
-292380
-81763.1
-154135
-251012
-285831
-298474
-314470
-340319
-258800
-136449
-13140.1
-72339.3
-370956
-574753
-700927
-780914
-826292
-831652
-809221
-763096
-717192
-660493
-627739
-581810
-573103
-539870
-540608
-554930
-535596
-538435
-541166
-563983
-587254
-624771
-664178
-704779
-735701
-726904
-661635
-545046
-339010
-169794
-283387
-326405
-329984
-281013
-217997
-228861
-223485
-204403
-163562
-89748.6
-375548
-613517
-748595
-818763
-845548
-830534
-793956
-741290
-696148
-647736
-617602
-586388
-569958
-556940
-568931
-556603
-535469
-539570
-528831
-547598
-567565
-604620
-649420
-695067
-741507
-756047
-712597
-603538
-400763
-355663
-447274
-440911
-404615
-348221
-354104
-397933
-430480
-449283
-431029
-319506
-401054
-674017
-799262
-857337
-865205
-831426
-779034
-720082
-673240
-621586
-596484
-558809
-556903
-545544
-554986
-592699
-568490
-560270
-547709
-543422
-554004
-575659
-614027
-656201
-707405
-736735
-716355
-629348
-459313
-501002
-525975
-494894
-441799
-412394
-409878
-443820
-492457
-559257
-581591
-521778
-457366
-701741
-811901
-852423
-844009
-789505
-733034
-681366
-640716
-607822
-588703
-573508
-579898
-573636
-598929
-602149
-589304
-578746
-561406
-548411
-545181
-555382
-582689
-616443
-659256
-697363
-690754
-629056
-525380
-602950
-583893
-546184
-514062
-469269
-464258
-493429
-534956
-599189
-632693
-636673
-550608
-726887
-813680
-831756
-804294
-741562
-689612
-646791
-621600
-599043
-592548
-583815
-590612
-590696
-606433
-630512
-626174
-610762
-594016
-563545
-546629
-535982
-547530
-567373
-587168
-624742
-632771
-604356
-566212
-659564
-619313
-585305
-528742
-489887
-472790
-500604
-545214
-587956
-643281
-681633
-632588
-716815
-770300
-774443
-718658
-663455
-629010
-615804
-610896
-611917
-615829
-618907
-632682
-631422
-652203
-631369
-653401
-641221
-627267
-591288
-559304
-531259
-524425
-531265
-533089
-537336
-532286
-536946
-591769
-664130
-637745
-592353
-539275
-483856
-451131
-487870
-531998
-590062
-631128
-691366
-686733
-685907
-696924
-662350
-615369
-593253
-595612
-611731
-627124
-641432
-649214
-660630
-665075
-667336
-671438
-623253
-670319
-670943
-665980
-622517
-577831
-527060
-504939
-497538
-492390
-475932
-448614
-422087
-519155
-586867
-579863
-549842
-495999
-435997
-403063
-421994
-469248
-520005
-573361
-624286
-647963
-588703
-553165
-530022
-521658
-553129
-590372
-632970
-660527
-683329
-695385
-707437
-709897
-708511
-702107
-582916
-657256
-687515
-698018
-667638
-612189
-531401
-478905
-464856
-461350
-458153
-428746
-411571
-369482
-466640
-474451
-471254
-429033
-373349
-335979
-373033
-418489
-455160
-458948
-481326
-477862
-432661
-416538
-454697
-502148
-566853
-621163
-672059
-697931
-722864
-729629
-747407
-739272
-735546
-707262
-516929
-600144
-653905
-698934
-680688
-648259
-558665
-471012
-419970
-416091
-417764
-403298
-385829
-337815
-346494
-348575
-363444
-325449
-268205
-263994
-304760
-355447
-372492
-371354
-361821
-333024
-336264
-393495
-465533
-535429
-607725
-662967
-708460
-726684
-747792
-752734
-761894
-749200
-740161
-701263
-428690
-510289
-569959
-628101
-644411
-638820
-571273
-457897
-386081
-365189
-372988
-375039
-371716
-323120
-285350
-236950
-230359
-194138
-175351
-215884
-279339
-305784
-313329
-299635
-308643
-328847
-385914
-448586
-523643
-585232
-647571
-688594
-720344
-725207
-742277
-720395
-724893
-717538
-717574
-671207
-309607
-377906
-441455
-510747
-547748
-566638
-540183
-478756
-363402
-306172
-311234
-319607
-345307
-324478
-290934
-220331
-161032
-121835
-155274
-230125
-276233
-294181
-296247
-311104
-345835
-392782
-450960
-512844
-574933
-625102
-671326
-698202
-710073
-714966
-664444
-662118
-661660
-673098
-674058
-628790
-151261
-164331
-212424
-329581
-458233
-568817
-624438
-616121
-514640
-350122
-272379
-258419
-299904
-322016
-319119
-282315
-230909
-191410
-226900
-276282
-308428
-315421
-330229
-352828
-397465
-442157
-500661
-551285
-602803
-635766
-665481
-667411
-658114
-605417
-602833
-585914
-588696
-584683
-602585
-560846
-154719
-169554
-270444
-397949
-482161
-557337
-616432
-624129
-546134
-412709
-289705
-191899
-224123
-272217
-303601
-296488
-283071
-262778
-282857
-318349
-333414
-340579
-354449
-387134
-428385
-476261
-528915
-578184
-619910
-640393
-649126
-625321
-577371
-597235
-581528
-510855
-461692
-436678
-493069
-474906
-229225
-238897
-304707
-403366
-461215
-516780
-561345
-584899
-535093
-434873
-307757
-174157
-146641
-220176
-279741
-300541
-305410
-300004
-309266
-320020
-325890
-322370
-337884
-366565
-413318
-466363
-530747
-584865
-620673
-625670
-611948
-566644
-521251
-597700
-619654
-515526
-335146
-208438
-307663
-361498
-253169
-247800
-298514
-368934
-420375
-487091
-517308
-530978
-491586
-413907
-309605
-160351
-86287.9
-144391
-228333
-270065
-284809
-286276
-287238
-293119
-289329
-289703
-306015
-349447
-402959
-463760
-533526
-594957
-628723
-611984
-570767
-491499
-486641
-579252
-619495
-537159
-317784
-90876.7
-104198
-248453
-256625
-223191
-266948
-322298
-383503
-451956
-477412
-486472
-448096
-386884
-287398
-149931
-61930.7
-110522
-201717
-255547
-275457
-268617
-253331
-233020
-213892
-188900
-194838
-248897
-332894
-427655
-536288
-616225
-624222
-584549
-513835
-445328
-448152
-529604
-571044
-482286
-223089
-28045
-9930.06
-105152
-233608
-177404
-205230
-300428
-370378
-426299
-444224
-434327
-389876
-324595
-232755
-139443
-113626
-159412
-217876
-251903
-248719
-222956
-184194
-150020
-102562
-78058.9
-130462
-268398
-374705
-450840
-537845
-605673
-632983
-572301
-481863
-422236
-431429
-495835
-524830
-327578
-35136.6
-10328.9
-4082.51
29356.5
-260590
-218123
-162222
-349835
-396445
-449853
-461189
-441176
-389883
-332136
-265985
-211156
-199107
-217528
-247260
-262574
-253891
-211503
-144800
-65500.7
53022
129531
29375.1
-149156
-305199
-440124
-546333
-597499
-574759
-499877
-433688
-398281
-420945
-468957
-443478
-137735
99675.7
34764.4
16934.1
99446.7
-185119
-249471
-176675
-413863
-442665
-500324
-504930
-490583
-407798
-366582
-297042
-248719
-220632
-226111
-247203
-247736
-205659
-120976
7552.43
192864
354281
186298
-123985
-346461
-451572
-492623
-522249
-532494
-513311
-452283
-407888
-396064
-447158
-504540
-468462
-198848
134129
163844
24246.3
68555.4
-750.498
-127583
-134248
-413973
-535122
-560406
-573234
-554909
-483218
-406507
-335877
-269543
-235721
-238085
-260023
-267807
-242103
-182766
-99065.1
-37.8072
161553
227601
67471.6
-165092
-336688
-464484
-573115
-588316
-545148
-466962
-409385
-402367
-479355
-574967
-630996
-421497
-39391.4
156669
56764.5
81723.9
99033.8
38310.4
-81414.3
-392763
-567669
-639409
-624536
-615026
-533544
-434835
-338822
-259670
-225531
-241079
-262349
-268453
-249915
-214932
-168445
-126627
-57347.2
-8784.76
-77376.7
-252234
-408567
-509416
-546739
-567564
-586431
-498596
-427749
-416532
-526418
-641823
-706845
-563996
-197625
85015
37536.5
-8826.2
-19050.4
55716.9
11671.3
-303312
-543309
-651668
-686802
-670568
-596841
-456099
-349870
-269069
-258985
-283960
-307106
-312087
-302601
-280777
-256678
-241550
-212492
-173680
-173039
-250142
-365704
-475081
-569517
-606941
-576808
-489315
-407565
-401839
-543490
-664503
-707209
-605655
-311445
-22102.2
-26842.4
-156439
-239992
-214827
-157037
-222974
-389287
-563004
-661002
-697671
-625770
-470832
-347401
-293579
-294611
-322192
-338291
-342567
-336071
-327260
-322367
-325132
-325174
-316198
-331140
-375768
-443889
-506625
-564544
-593168
-600770
-540805
-443801
-391183
-549480
-658010
-655604
-504504
-288972
-150936
-244255
-294789
-426917
-484375
-496619
-535855
-549818
-578994
-606628
-629052
-602955
-470286
-349056
-332892
-350798
-373421
-383394
-380949
-373037
-364591
-363633
-371981
-374863
-370779
-382695
-413242
-458958
-507890
-557822
-588419
-596842
-576111
-521122
-406604
-513613
-576485
-548992
-497511
-457746
-430018
-446878
-418727
-557955
-641442
-677300
-724059
-730697
-744168
-710104
-667955
-573607
-453652
-388263
-389484
-405005
-416881
-415181
-405501
-392931
-383303
-386084
-399239
-410344
-408834
-427371
-452028
-489575
-519049
-559318
-581286
-608800
-602774
-592364
-523908
-517649
-569166
-596641
-603730
-605707
-587145
-576794
-519563
-650192
-737554
-774811
-813020
-814740
-808340
-758095
-682458
-572984
-475874
-440329
-446160
-453118
-452179
-437389
-415477
-391099
-368164
-356976
-380920
-392538
-395941
-410981
-434910
-465683
-492567
-527458
-554823
-587762
-605488
-620021
-604069
-610230
-641151
-649930
-653113
-676799
-667624
-653853
-591948
-713355
-792770
-815388
-844624
-829204
-825134
-755153
-662545
-564361
-507106
-489589
-493434
-488532
-472412
-445079
-408834
-368277
-324583
-294785
-327156
-361440
-374003
-399517
-419412
-449752
-463201
-497929
-517552
-565524
-592437
-630858
-643434
-663316
-684696
-723015
-717088
-722831
-713116
-701411
-644768
-750183
-809753
-819341
-834771
-816184
-783941
-711547
-631376
-566650
-538950
-526973
-523602
-503051
-477483
-436576
-389996
-342859
-306139
-302958
-320027
-340153
-351554
-373231
-392885
-409419
-407358
-431760
-451140
-504571
-547708
-599712
-633655
-669989
-689523
-728332
-739879
-750063
-730077
-718172
-672254
-755608
-791908
-786665
-789017
-754459
-722165
-659382
-609579
-573209
-561740
-551955
-540438
-515498
-481629
-446704
-400209
-367920
-354193
-358666
-358152
-368337
-361688
-391625
-404624
-422434
-403976
-393292
-362738
-432459
-484225
-553274
-599949
-647134
-674524
-703630
-715477
-728098
-718576
-711445
-681827
-742784
-749999
-737297
-724707
-693778
-663133
-619085
-592732
-575995
-573045
-563179
-549571
-513902
-499304
-455283
-429182
-410269
-396234
-394796
-391636
-388739
-387264
-406997
-416780
-440154
-444196
-461849
-421645
-394362
-426841
-490211
-545569
-598902
-630225
-659560
-671587
-683596
-681069
-679103
-669610
-704850
-694001
-676719
-661508
-633039
-610959
-587465
-580226
-578110
-579594
-570777
-555583
-534402
-541747
-527368
-496100
-458571
-431289
-419537
-413448
-401109
-396000
-428045
-461370
-521250
-563375
-603632
-546762
-509475
-461640
-481035
-514542
-560635
-590416
-615808
-627466
-639912
-641171
-642656
-645885
-672305
-640913
-627962
-606637
-586299
-572949
-564620
-569939
-577618
-584144
-592796
-594227
-571865
-595666
-586368
-541546
-491506
-439775
-427180
-399716
-389663
-404160
-451593
-504338
-577268
-625222
-662632
-575918
-583598
-552520
-532843
-525609
-545136
-560739
-576916
-587082
-593545
-604940
-602308
-619425
-617604
-585664
-578618
-557200
-551015
-546430
-557601
-575266
-596254
-620885
-632779
-621795
-599448
-581246
-585926
-546800
-484061
-438209
-409012
-388147
-381321
-391911
-445051
-518946
-604113
-648484
-655422
-552017
-614846
-619469
-602600
-577968
-567476
-565999
-562814
-565753
-564159
-570543
-571708
-584399
-594151
-556265
-552738
-533210
-534720
-540603
-561092
-585898
-616421
-639561
-648667
-624795
-581172
-511374
-511481
-486837
-434988
-378130
-347479
-331691
-339538
-346731
-403546
-476369
-559345
-599692
-577636
-487427
-606103
-644963
-648172
-622058
-597965
-579963
-565004
-556146
-547614
-554497
-549444
-570563
-545317
-516801
-523276
-505697
-529333
-540816
-577405
-609766
-644634
-670998
-659044
-622032
-566546
-439531
-387727
-401040
-374789
-334428
-285198
-259533
-261316
-262345
-332339
-417012
-485390
-501027
-456962
-419575
-573127
-643023
-670327
-660434
-632880
-610564
-580426
-567002
-541046
-538763
-531511
-536680
-540337
-515719
-518950
-516763
-542749
-558541
-596675
-623005
-656818
-670485
-655744
-618411
-543433
-393899
-253577
-228922
-221937
-201597
-183554
-152163
-164914
-183659
-243762
-323851
-370138
-372728
-319190
-369248
-519926
-602803
-653329
-662022
-644534
-623074
-595668
-576651
-557605
-545519
-536409
-546648
-511226
-488910
-512787
-510426
-547650
-565019
-607949
-637011
-667040
-671939
-653312
-611228
-538791
-426161
-239096
-137023
-115767
-158537
-244904
-245723
-186577
-154522
-187703
-254829
-293219
-287387
-227943
-329989
-468566
-555895
-617754
-651642
-652186
-639133
-608361
-589204
-556480
-550256
-524437
-522694
-508888
-508791
-534157
-534912
-576662
-586513
-627273
-636539
-652358
-637480
-611627
-563286
-497217
-405751
-294801
-153818
-10800
-9344.41
-140138
-258942
-301634
-260925
-251229
-273391
-284749
-266893
-207143
-293394
-405472
-487304
-549990
-598551
-619118
-630504
-614945
-607383
-581448
-570179
-556053
-538617
-518608
-519175
-544289
-544235
-578694
-589091
-616593
-622374
-618603
-588642
-531409
-456875
-374936
-282432
-191694
-229089
-259010
-288161
-308491
-293754
-299144
-241580
-162612
-135872
-200360
-320221
-425673
-524755
-605807
-672300
-708888
-726697
-714499
-702265
-665329
-649029
-612235
-601615
-582486
-564884
-518594
-498934
-520847
-520396
-548781
-569742
-603931
-635527
-656491
-656754
-615219
-541570
-452632
-339937
-208996
-246157
-277678
-292073
-303955
-307360
-331982
-284706
-227660
-177734
-211050
-383896
-509362
-616976
-700253
-754764
-769697
-756299
-719612
-683049
-636117
-612456
-575227
-572937
-543937
-548063
-540032
-520316
-522302
-522558
-541379
-559251
-589508
-620344
-650630
-670975
-654610
-590365
-508594
-388834
-275771
-325983
-322311
-328264
-306331
-259359
-265596
-255694
-247730
-263669
-237139
-420141
-558753
-665890
-740485
-778132
-772505
-744711
-701339
-665244
-626286
-604878
-581850
-571790
-562810
-578671
-537589
-516757
-520066
-507909
-524161
-540715
-572718
-610511
-646670
-682355
-689159
-645971
-575843
-445421
-400474
-428638
-411781
-399399
-368378
-377942
-404895
-418147
-424660
-431385
-399745
-468665
-645036
-728187
-790424
-808421
-783649
-738836
-687745
-648022
-603984
-585750
-555173
-558847
-551488
-563744
-567767
-544513
-536100
-523556
-519368
-528973
-548357
-582146
-617295
-659928
-680683
-661947
-611220
-490259
-494589
-480809
-459209
-427490
-408539
-402568
-424350
-453554
-494556
-515836
-521432
-510363
-688360
-753362
-797649
-797835
-754697
-705524
-658854
-622363
-593663
-579241
-568963
-579681
-576543
-603282
-570606
-559364
-549108
-533879
-523541
-522350
-532908
-558243
-588422
-625377
-657194
-649889
-614589
-530854
-565347
-531810
-508190
-488248
-451165
-446555
-468449
-496060
-539874
-558080
-592684
-562810
-707876
-760057
-783627
-769870
-720170
-675402
-634054
-608795
-587138
-582558
-576733
-586269
-588326
-604345
-590885
-589503
-574577
-562295
-537739
-526067
-518530
-530029
-549156
-569260
-604838
-609592
-590617
-539743
-591437
-551505
-536713
-493417
-465884
-452834
-471574
-503705
-534712
-572929
-610473
-596121
-680633
-717207
-733417
-700581
-660183
-628301
-610411
-600673
-598954
-602420
-606246
-620736
-620772
-640211
-584234
-609947
-597783
-590318
-563340
-540741
-518524
-512442
-518187
-522862
-533255
-534370
-530983
-538215
-575861
-554289
-529479
-495264
-459467
-437247
-465049
-493007
-536487
-559453
-603461
-607160
-632175
-654210
-645337
-621908
-605653
-600914
-606011
-612969
-622664
-628632
-639160
-643315
-646827
-648958
-569195
-619834
-618692
-621146
-589834
-560351
-520650
-500440
-489343
-484078
-475668
-465823
-433169
-478707
-512028
-504171
-488404
-453330
-417838
-401230
-414663
-445738
-481073
-518170
-550101
-570636
-551011
-550207
-551760
-549955
-570136
-590946
-618731
-637170
-655358
-664990
-674842
-675954
-676824
-667615
-525660
-601345
-626803
-643072
-627541
-590775
-530100
-485517
-465906
-454558
-449790
-429368
-422243
-368737
-435957
-428317
-427282
-400539
-371700
-351602
-379791
-408237
-436379
-439322
-458736
-462405
-450217
-461127
-495042
-526805
-570654
-606530
-643949
-663384
-684860
-689216
-704112
-695123
-693958
-662095
-462780
-543626
-589412
-638600
-631007
-616541
-553758
-486763
-435666
-417840
-407562
-391359
-383845
-350771
-362443
-352771
-357721
-332111
-299002
-298675
-321674
-356425
-374702
-385320
-390932
-380090
-390541
-439753
-489806
-538033
-590353
-630812
-667109
-683146
-701282
-708498
-715880
-700721
-691405
-646192
-391437
-466101
-515186
-575428
-600979
-608916
-561367
-477772
-420749
-387649
-374259
-359966
-355207
-321619
-309100
-276866
-274233
-248340
-234055
-254453
-293567
-314025
-330508
-331620