/*--------------------------------*- C++ -*----------------------------------*\
  =========                 |
  \\      /  F ield         | OpenFOAM: The Open Source CFD Toolbox
   \\    /   O peration     | Website:  https://openfoam.org
    \\  /    A nd           | Version:  11
     \\/     M anipulation  |
\*---------------------------------------------------------------------------*/
FoamFile
{
    format      ascii;
    class       surfaceScalarField;
    location    "1000";
    object      phi;
}
// * * * * * * * * * * * * * * * * * * * * * * * * * * * * * * * * * * * * * //

dimensions      [0 3 -1 0 0 0 0];

internalField   nonuniform List<scalar> 
376000
(
-0.00324872
0.00200279
2.79907
0.0703922
-0.0772017
7.08248
0.133266
-0.0675713
10.5979
0.250198
-0.123568
14.5731
0.401539
-0.158468
18.7022
0.567477
-0.174724
22.6761
0.738093
-0.179708
26.469
0.885182
-0.15748
29.8733
0.982949
-0.109415
32.7303
0.998595
-0.0294163
34.828
0.944336
0.0386115
36.3434
0.840662
0.0861833
37.249
0.690326
0.132732
37.4387
0.472184
0.221866
39.1452
0.271429
0.245884
50.7145
0.179958
0.118538
63.8511
0.197635
-0.00692878
71.6193
0.246033
-0.0461674
74.184
0.193112
0.0475469
70.2774
-0.124965
0.308768
63.0884
-0.486052
0.345599
63.8187
-0.619244
0.14356
68.5143
-0.662079
0.0897411
66.4424
-0.735514
0.138667
56.6847
-0.888301
0.178851
45.6109
-1.06305
0.159463
42.1792
-1.20544
0.120803
42.3354
-1.30781
0.0833201
42.1511
-1.36055
0.036308
41.2084
-1.35084
-0.0233552
39.6723
-1.26835
-0.0937627
37.5848
-1.12097
-0.156609
34.8518
-0.933979
-0.195774
31.5489
-0.732645
-0.209118
27.8098
-0.534499
-0.206192
23.7514
-0.360898
-0.180507
19.517
-0.212175
-0.155383
15.2336
-0.12413
-0.0933712
11.0176
-0.037763
-0.0900629
7.23419
-0.0399652
3.44117
-0.0766636
0.075292
7.05831
-0.0827406
-0.077193
11.1189
-0.0239133
-0.133819
15.4289
0.0501039
-0.207209
20.159
0.188988
-0.307713
25.106
0.363191
-0.360537
29.6939
0.570578
-0.399061
34.0665
0.782047
-0.381187
37.896
0.969675
-0.309957
41.0063
1.07132
-0.145498
43.2035
1.04026
0.0523389
44.4412
0.892325
0.213257
44.7278
0.632073
0.369898
43.8164
0.319263
0.54401
45.4464
0.10301
0.519293
64.4511
-0.0201155
0.262948
80.6592
-0.0817606
0.0580781
85.4902
-0.116686
-0.00497184
86.3235
-0.0758565
0.0182068
81.6432
-0.045277
0.281333
66.2071
-0.0474586
0.337658
63.927
-0.0566661
0.158757
77.1184
-0.152322
0.20069
83.8733
-0.297876
0.335648
80.429
-0.580685
0.528145
61.5408
-0.935055
0.505105
48.9085
-1.21539
0.375767
49.3781
-1.37727
0.224628
50.1147
-1.42692
0.070202
49.6336
-1.36432
-0.0977103
48.2065
-1.20513
-0.263053
46.0088
-0.987782
-0.383723
43.2317
-0.752082
-0.441865
39.7878
-0.520372
-0.451404
35.7243
-0.318222
-0.419521
31.1285
-0.150097
-0.359017
26.269
-0.0479384
-0.267619
21.1672
0.0318823
-0.181798
16.1481
0.0611281
-0.126278
11.5412
0.0168
7.23125
-0.064879
0.135619
10.554
-0.131014
-0.0183175
15.3947
-0.135731
-0.138307
20.4628
-0.0930432
-0.260932
25.5854
-0.0253767
-0.387233
30.773
0.0908498
-0.489627
35.8326
0.256215
-0.577535
40.5677
0.449714
-0.588017
44.5044
0.6625
-0.536352
47.3975
0.832242
-0.330077
48.9266
0.86262
0.0042664
49.5969
0.753221
0.300897
49.2368
0.508681
0.591394
47.6915
0.195386
0.879323
51.0886
-0.0221072
0.784927
75.288
-0.182112
0.425467
86.3018
-0.298178
0.173401
89.776
-0.322555
0.0197568
92.9871
-0.259529
-0.0317827
95.2587
0.0076465
0.0461193
90.7932
0.286245
0.0915605
83.6314
0.329713
0.140801
92.4121
0.210725
0.337828
95.8159
0.00274445
0.563978
94.1889
-0.267281
0.87153
77.9365
-0.624069
0.877608
54.609
-0.924594
0.652402
52.787
-1.07671
0.357523
54.0827
-1.10877
0.0887359
53.9855
-1.01599
-0.199705
52.7762
-0.837322
-0.451172
51.16
-0.624742
-0.606482
49.2301
-0.421032
-0.657036
46.2756
-0.235141
-0.649361
42.3489
-0.0921674
-0.575183
37.5075
0.00119573
-0.464855
32.2813
0.0700922
-0.348178
26.7369
0.0943127
-0.216378
21.3397
0.0533194
-0.093941
16.0438
0.0643249
10.7583
-0.12185
0.251047
14.5216
-0.207025
0.0573237
20.1354
-0.259028
-0.0972578
25.5695
-0.266177
-0.266858
31.0533
-0.216154
-0.450666
36.4667
-0.14044
-0.579202
41.6283
-0.0177704
-0.713691
46.509
0.137207
-0.755849
50.508
0.321486
-0.733023
53.0384
0.528802
-0.55071
53.4352
0.606971
-0.0876747
52.7426
0.515918
0.373449
51.8957
0.303632
0.785685
50.2531
0.0343706
1.1858
57.3793
-0.160819
0.99365
80.8309
-0.285414
0.534419
81.0054
-0.346401
0.223917
78.1527
-0.330576
0.00640523
76.7934
-0.227712
-0.118338
76.2933
0.0429677
-0.213421
73.8627
0.315361
-0.183187
68.1444
0.375972
0.0744157
74.2614
0.309213
0.394923
83.6046
0.172379
0.690607
90.4196
0.0187483
1.05608
88.1805
-0.246807
1.19395
63.9354
-0.545631
0.936647
54.8812
-0.704486
0.502646
55.8968
-0.742447
0.119722
55.7366
-0.64455
-0.301262
54.5332
-0.469721
-0.632089
54.5032
-0.285769
-0.799137
54.1796
-0.121953
-0.832075
52.0205
0.0215535
-0.805873
48.4078
0.118215
-0.686525
43.4691
0.188926
-0.550004
38.0835
0.218256
-0.392311
32.4297
0.177223
-0.188314
26.6709
0.114364
-0.042543
20.8694
0.169849
14.9999
-0.147275
0.391607
18.5702
-0.295215
0.195405
24.9769
-0.371342
-0.0327154
30.6614
-0.432496
-0.218777
36.3748
-0.440569
-0.45645
41.9647
-0.401916
-0.631683
47.3035
-0.330288
-0.798841
52.2307
-0.218241
-0.880524
56.1943
-0.0873508
-0.875601
58.5061
0.101816
-0.750311
58.0814
0.284199
-0.283944
52.748
0.283303
0.361103
52.3778
0.133027
0.926251
52.1537
-0.046344
1.40273
64.1227
-0.230162
1.17066
81.5242
-0.404484
0.691122
74.286
-0.465328
0.27803
68.6711
-0.375294
-0.0798226
65.8006
-0.224507
-0.261791
65.9662
-0.0520989
-0.380221
65.5216
0.123252
-0.354625
63.1777
0.27914
-0.0856988
63.731
0.344707
0.309455
72.5119
0.293221
0.717271
82.6149
0.238218
1.10605
89.0906
0.108768
1.37429
75.9711
-0.111107
1.15218
58.7714
-0.253877
0.636259
56.3033
-0.250759
0.113718
55.0031
-0.135275
-0.421996
53.8447
0.00205105
-0.773213
57.1971
0.127944
-0.93332
58.859
0.237535
-0.953122
57.4935
0.315483
-0.897872
54.1443
0.364319
-0.751003
49.3596
0.381985
-0.583676
43.8383
0.337304
-0.363419
37.9574
0.279604
-0.14462
31.9221
0.160791
0.0637078
25.9788
0.321052
19.37
-0.159983
0.543262
22.4489
-0.338876
0.363238
29.4306
-0.466553
0.0824908
35.5572
-0.551673
-0.147031
41.3671
-0.602083
-0.419571
47.0961
-0.60768
-0.639152
52.6609
-0.577504
-0.841237
57.8605
-0.513144
-0.955846
62.0437
-0.423117
-0.975077
64.2646
-0.311545
-0.869159
63.3842
-0.08445
-0.518978
58.8352
0.058361
0.212321
52.3722
0.018745
0.966108
54.496
0.000414457
1.45017
70.0348
-0.0637612
1.21921
82.1046
-0.152067
0.774595
74.1887
-0.262856
0.386528
67.1216
-0.340683
-3.72929e-05
65.7931
-0.283976
-0.313787
67.3285
-0.207606
-0.451231
67.8588
-0.148776
-0.411754
65.7444
-0.014
-0.219566
65.4163
0.150076
0.135088
69.4418
0.236133
0.613398
79.374
0.298149
1.02996
88.1938
0.322214
1.38331
84.0123
0.252511
1.2223
65.9031
0.186647
0.695113
58.9644
0.236366
0.0632863
55.2534
0.332013
-0.518284
57.1735
0.405456
-0.84871
61.4771
0.47163
-1.00552
63.8431
0.521813
-1.01403
63.2126
0.549673
-0.939976
60.0639
0.55107
-0.769168
55.1496
0.518933
-0.568955
49.3518
0.451101
-0.313147
43.2085
0.349549
-0.0592832
36.9416
0.18645
0.21194
30.6301
0.495309
23.4746
-0.155694
0.690492
26.1017
-0.363836
0.56034
33.6419
-0.537965
0.244309
40.0865
-0.670398
-0.0270657
45.9773
-0.753596
-0.348935
51.6722
-0.793561
-0.61061
57.4658
-0.797482
-0.847901
63.1846
-0.770955
-0.991738
68.1268
-0.708338
-1.04505
71.166
-0.625664
-0.956397
70.8205
-0.435528
-0.708701
65.8485
-0.180671
-0.0543104
53.7325
-0.0450287
0.833115
57.7663
0.0767524
1.33702
73.9896
0.1723
1.0966
81.2403
0.20221
0.731482
75.851
0.200024
0.384986
70.5285
-0.00553836
0.202696
67.1351
-0.259056
-0.0579009
69.5031
-0.334575
-0.37099
71.2323
-0.374937
-0.373124
69.265
-0.3565
-0.243125
69.5987
-0.19017
-0.0363443
73.0413
0.0268452
0.384098
78.87
0.22379
0.809095
87.0815
0.392703
1.22349
88.2081
0.477606
1.13357
72.5415
0.550325
0.611308
63.7317
0.648239
-0.0448032
58.9952
0.721865
-0.592049
63.1069
0.768394
-0.895114
68.2467
0.792246
-1.03443
70.7556
0.795657
-1.02806
69.9225
0.778474
-0.937916
66.3182
0.737591
-0.745883
60.8627
0.673763
-0.523657
54.5755
0.566128
-0.223937
48.1888
0.416049
0.0739006
41.8725
0.208268
0.403841
35.1811
0.691029
27.4508
-0.124196
0.804778
29.3049
-0.32708
0.751903
37.24
-0.525768
0.430883
43.7015
-0.683913
0.11979
49.5371
-0.808038
-0.235558
55.1066
-0.884439
-0.54299
61.0354
-0.921918
-0.817896
67.4996
-0.927318
-0.993439
73.7412
-0.905245
-1.07304
78.5249
-0.846337
-1.01865
80.3612
-0.715752
-0.836874
78.2596
-0.386752
-0.375134
71.5362
-0.0202312
0.472442
60.9634
0.217809
1.08255
74.8803
0.390135
0.890005
78.6807
0.477292
0.62122
75.7632
0.477523
0.370671
72.2567
0.381499
0.29118
69.5341
0.0572433
0.270145
69.6287
-0.249382
-0.0551146
75.28
-0.388881
-0.232068
73.3041
-0.514273
-0.126922
71.3193
-0.491371
-0.0714462
74.0786
-0.285892
0.160109
78.4705
0.00852248
0.487304
84.151
0.31604
0.894188
88.1925
0.531673
0.907863
76.5495
0.719259
0.406763
67.787
0.897873
-0.224245
68.0531
0.987206
-0.67517
73.7445
1.01287
-0.918158
78.2867
0.997273
-1.02359
79.5752
0.959356
-1.00167
77.4687
0.902624
-0.897651
72.6207
0.830752
-0.692998
66.067
0.733692
-0.446705
58.9909
0.600909
-0.110734
52.3284
0.432612
0.223392
45.7823
0.211449
0.607828
39.0412
0.88819
31.0678
-0.063937
0.857532
31.8669
-0.226422
0.902324
40.0374
-0.4416
0.633614
46.1644
-0.638339
0.306188
51.4828
-0.777026
-0.105733
56.6946
-0.872681
-0.452889
62.3831
-0.94451
-0.749156
69.6637
-0.98277
-0.958409
77.5533
-0.990736
-1.06895
84.6366
-0.960753
-1.05134
89.0566
-0.879098
-0.916478
89.5923
-0.615553
-0.627385
84.9975
-0.0613794
-0.0604854
72.5695
0.402333
0.594878
73.9738
0.591152
0.670456
75.7324
0.672448
0.516686
74.5701
0.608013
0.420399
72.7024
0.470503
0.420959
70.979
0.337298
0.409358
71.7991
0.0899311
0.209078
77.5117
-0.122864
-0.0104091
80.5762
-0.288779
0.043644
75.1728
-0.446719
0.0809825
74.2471
-0.420704
0.119962
76.3835
-0.224759
0.264944
79.7943
0.125522
0.505645
83.5271
0.513036
0.508005
77.4319
0.864105
0.0537734
72.6159
1.09055
-0.435462
80.5613
1.16703
-0.740794
86.9081
1.16438
-0.913412
89.7262
1.11479
-0.981321
88.8593
1.04612
-0.94715
84.7588
0.962905
-0.833256
78.0827
0.867387
-0.618232
69.9812
0.758351
-0.359154
61.9252
0.611372
0.0152473
55.2255
0.422834
0.391954
48.7247
0.200415
0.812372
42.2236
1.07395
34.2737
0.0172265
0.827312
33.7141
-0.0367816
0.942068
41.7864
-0.16642
0.749266
47.3183
-0.354916
0.482226
51.1053
-0.577929
0.110049
55.3541
-0.722399
-0.310396
60.411
-0.820162
-0.648277
68.4012
-0.89852
-0.877648
78.2068
-0.947366
-1.01979
88.2008
-0.958112
-1.04263
95.8519
-0.917616
-0.958192
100.173
-0.791937
-0.752166
100.03
-0.397285
-0.448105
95.2716
0.192774
0.0251397
82.1532
0.515411
0.33719
76.8873
0.577273
0.44501
75.537
0.516913
0.474621
74.1038
0.393178
0.544321
72.964
0.346743
0.472937
75.5752
0.318945
0.262178
83.1829
0.208171
0.119289
90.3434
0.0997381
0.156369
87.6841
-0.022751
0.207624
81.9911
-0.09721
0.198302
81.3691
-0.0170497
0.18722
81.864
0.289296
0.193337
83.1118
0.757302
0.0577069
83.7101
1.10485
-0.267681
92.7039
1.24062
-0.55414
98.8347
1.25208
-0.746434
101.502
1.19771
-0.862899
100.909
1.11041
-0.906438
97.2165
1.01248
-0.8673
90.6923
0.900331
-0.74274
81.6965
0.788493
-0.529051
71.493
0.670886
-0.264888
62.1881
0.524114
0.139245
55.1333
0.357964
0.53629
49.6258
0.167031
0.98477
44.3754
1.22505
36.9316
0.0721183
0.740275
35.0136
0.150484
0.846654
42.6474
0.165994
0.716358
47.5637
0.138222
0.494871
50.444
-0.0273313
0.265249
50.4641
-0.269727
-0.0764184
53.8124
-0.491537
-0.41808
62.8239
-0.680823
-0.677102
74.4798
-0.794097
-0.899291
87.9208
-0.850973
-0.983996
99.1113
-0.859923
-0.94957
107.454
-0.819335
-0.793405
111.548
-0.690665
-0.573063
110.378
-0.362419
-0.294065
104.017
0.0119955
-0.0168397
90.1611
0.212683
0.260051
81.9627
0.246433
0.447546
78.0382
0.268002
0.539436
77.7989
0.350529
0.424948
84.1573
0.401078
0.246338
93.3634
0.400135
0.14227
99.2208
0.395361
0.174589
99.14
0.432181
0.18369
96.1462
0.500785
0.148069
95.8164
0.632726
0.0777747
97.1018
0.88491
-0.0264091
101.511
1.1493
-0.177159
108.216
1.2773
-0.377426
112.746
1.28568
-0.554888
114.438
1.22895
-0.691896
113.438
1.13009
-0.774295
109.783
1.01364
-0.807161
103.496
0.886372
-0.761563
94.4917
0.73567
-0.615107
82.5871
0.586905
-0.404846
69.5138
0.467286
-0.171093
58.5125
0.37218
0.208961
51.7767
0.264221
0.62235
48.7551
0.125939
1.10457
45.6514
1.33439
39.0548
0.109528
0.614406
35.5814
0.295101
0.641031
42.433
0.441366
0.549076
46.6518
0.568526
0.349182
49.1661
0.637066
0.182944
50.276
0.532637
0.0205405
51.1623
0.267468
-0.159711
53.1023
-0.104845
-0.290415
64.8025
-0.458006
-0.528116
82.9088
-0.63388
-0.798913
98.0291
-0.692909
-0.886162
110.489
-0.700233
-0.786409
119.793
-0.666156
-0.605825
123.881
-0.57181
-0.380287
123.157
-0.394503
-0.174363
117.058
-0.164818
0.0672804
102.842
0.0171194
0.304043
93.0194
0.185684
0.416336
92.8298
0.342134
0.317824
102.651
0.417788
0.204181
109.64
0.449321
0.131857
113.149
0.512379
0.12861
113.701
0.617476
0.100029
114.413
0.757268
0.0332259
116.746
0.919319
-0.0576225
121.53
1.06938
-0.15713
126.082
1.1718
-0.267324
128.194
1.20498
-0.406151
128.259
1.17165
-0.524105
126.27
1.08681
-0.616687
122.229
0.962983
-0.665832
116.092
0.823135
-0.688212
107.573
0.640579
-0.602766
95.9438
0.396271
-0.394951
79.5788
0.217193
-0.258312
62.8013
0.186043
-0.163466
51.4468
0.202976
0.174713
47.634
0.166489
0.639784
47.586
0.0819867
1.17119
46.471
1.39852
40.6719
0.180615
0.423426
35.9522
0.466786
0.340447
41.4893
0.740925
0.262904
45.4207
0.978834
0.107178
48.6366
1.15572
0.0112459
51.8895
1.21041
-0.0229634
55.8542
1.09122
-0.0260291
60.0211
0.749928
0.0604328
63.4619
0.177592
0.0655015
69.7556
-0.292667
-0.306898
91.8415
-0.457625
-0.709474
108.296
-0.506748
-0.73291
122.827
-0.515862
-0.597132
131.527
-0.488827
-0.406587
135.587
-0.426104
-0.228837
135.662
-0.29417
-0.0437084
130.501
-0.0841752
0.133463
121.499
0.140887
0.240176
119.652
0.305081
0.190178
125.883
0.400096
0.12955
127.04
0.485213
0.0616664
128.269
0.595423
0.0353088
130.117
0.731421
-0.0166479
133.274
0.867454
-0.0841121
137.814
0.980256
-0.156979
140.832
1.06954
-0.238117
141.83
1.12646
-0.3213
140.932
1.12588
-0.407678
138.361
1.06328
-0.468725
134.118
0.946649
-0.512583
128.179
0.785997
-0.522475
120.361
0.598281
-0.522421
110.042
0.274728
-0.302881
95.1078
-0.0601371
-0.0994549
69.9165
-0.16076
-0.169574
59.3909
-0.116135
-0.217281
55.0735
-0.0102319
0.0648122
47.6099
0.0487757
0.563132
46.9712
0.0353997
1.167
47.1077
1.41505
41.7986
0.271617
0.182861
44.545
0.587284
0.0672257
53.4917
0.914608
-0.0157271
62.1648
1.19368
-0.138205
70.4401
1.39598
-0.179238
75.6481
1.42579
-0.0577495
78.4889
1.29392
0.0804557
78.9149
1.05266
0.264639
76.6585
0.641543
0.447452
74.5314
0.118408
0.231296
80.2738
-0.201298
-0.366259
100.864
-0.289047
-0.628799
121.173
-0.319046
-0.562142
134.906
-0.316751
-0.408336
142.828
-0.288253
-0.255473
147.171
-0.218912
-0.107018
148.596
-0.0867733
0.0183379
145.827
0.0792865
0.0990959
144.331
0.212701
0.0747522
145.388
0.31388
0.0382623
142.768
0.411348
-0.0271869
143.604
0.529134
-0.0731224
146.757
0.659043
-0.136474
150.973
0.786395
-0.203619
153.306
0.901982
-0.267338
153.664
0.991934
-0.326261
152.272
1.03807
-0.368647
149.348
1.01889
-0.393649
145
0.934142
-0.393004
139.306
0.781475
-0.373704
132.145
0.586505
-0.34518
123.198
0.315422
-0.273229
111.372
-0.0933514
0.0800564
88.9939
-0.37134
0.170182
69.7061
-0.44504
-0.0989112
67.995
-0.439404
-0.223126
63.0037
-0.287991
-0.0834739
53.5962
-0.107179
0.369735
46.8436
-0.00742877
1.04677
47.1616
1.38741
42.4185
0.17781
0.0265105
59.7915
0.3749
-0.110323
75.2064
0.576361
-0.212857
82.1916
0.750505
-0.321819
80.9616
0.936418
-0.375572
78.0628
1.01893
-0.147881
78.5632
0.943166
0.135681
78.6242
0.778658
0.398281
76.7803
0.614156
0.58459
74.6228
0.367279
0.469421
76.1539
0.0649852
-0.0387176
87.4532
-0.0949465
-0.436653
113.778
-0.151616
-0.489874
134.09
-0.178711
-0.37721
146.229
-0.181492
-0.251097
153.269
-0.152949
-0.133113
157.27
-0.0715384
-0.0585727
158.758
0.0458379
-0.00978044
158.809
0.165486
-0.0385236
158.136
0.283772
-0.0775989
154.717
0.405799
-0.146342
155.826
0.538866
-0.200163
159.148
0.672199
-0.262943
161.735
0.797621
-0.322887
162.451
0.903395
-0.368765
161.248
0.981657
-0.402282
158.413
1.01482
-0.402346
154.181
0.981132
-0.364054
148.793
0.868789
-0.288627
142.392
0.681339
-0.198437
134.801
0.420531
-0.0999571
125.432
0.0675075
0.0614469
112.483
-0.256429
0.39748
84.2071
-0.470428
0.365841
75.882
-0.60702
0.0330514
79.4922
-0.640342
-0.17457
76.8929
-0.521616
-0.176945
66.7707
-0.27212
0.134762
50.8334
-0.0468475
0.801297
46.4147
1.31967
42.518
0.0345894
-0.00411286
67.4524
0.143999
-0.216063
82.6411
0.287962
-0.357146
86.6172
0.385075
-0.427262
78.2046
0.525659
-0.523366
70.6591
0.626214
-0.245444
70.6692
0.612365
0.143736
73.1659
0.552448
0.440122
73.7578
0.508667
0.610318
73.334
0.474524
0.497326
74.7449
0.333225
0.121477
81.0021
0.156839
-0.216099
100.232
0.0528686
-0.351969
127.499
-0.00883781
-0.302472
146.258
-0.0381696
-0.216771
156.929
-0.0356487
-0.132176
162.812
-0.00400887
-0.0864702
166.437
0.0511465
-0.0611743
167.689
0.115476
-0.0993806
167.255
0.195412
-0.155559
163.757
0.291358
-0.239039
164.109
0.413607
-0.316957
167.096
0.560046
-0.402615
168.593
0.712067
-0.468121
167.723
0.850272
-0.500558
164.892
0.951895
-0.499175
160.53
0.990319
-0.43862
155.179
0.938305
-0.314146
149.222
0.798854
-0.155562
142.84
0.593001
-0.00308111
135.575
0.312098
0.168327
126.476
-0.0248383
0.388051
113.439
-0.25311
0.626903
84.8102
-0.40999
0.497843
78.138
-0.553241
0.14862
84.6199
-0.608624
-0.126517
89.4337
-0.563549
-0.192138
87.3173
-0.366347
-0.00270459
71.4719
-0.0861035
0.533441
48.3606
1.21208
42.0286
-0.033064
0.0296091
72.3536
0.0161095
-0.260332
85.3034
0.0913016
-0.430659
89.1889
0.102835
-0.437645
74.6668
0.11026
-0.528335
65.9408
0.22376
-0.358867
64.7249
0.290347
0.0762683
68.4306
0.322601
0.397186
70.5495
0.416367
0.505145
71.5242
0.501345
0.407425
73.1573
0.479412
0.154397
77.1998
0.349064
-0.0442321
92.2411
0.19313
-0.149702
119.938
0.0707372
-0.156952
143.936
-0.00564169
-0.131773
157.808
-0.0438872
-0.0901303
165.887
-0.0436373
-0.0833181
170.152
-0.00957154
-0.0918439
172.025
0.0514678
-0.157015
171.406
0.143087
-0.243844
167.449
0.262653
-0.353248
167.978
0.415477
-0.459981
171.098
0.579927
-0.553951
171.324
0.719137
-0.591657
168.7
0.809416
-0.575571
164.083
0.857617
-0.534397
158.256
0.857766
-0.430081
152.015
0.796747
-0.250452
145.989
0.64568
-0.00759071
140.426
0.386617
0.25117
134.1
0.076959
0.471471
125.994
-0.167339
0.638443
111.143
-0.266267
0.734283
86.4423
-0.339417
0.549846
78.5835
-0.413207
0.192113
84.0957
-0.44765
-0.114891
91.9966
-0.4185
-0.21465
97.9601
-0.326313
-0.0473463
91.6561
-0.124211
0.395276
61.4364
1.07289
41.3233
-0.0337021
0.0643531
72.7308
-0.0116274
-0.26843
84.9549
-0.0244291
-0.411407
90.6937
-0.0877668
-0.359424
72.0527
-0.20439
-0.404825
64.272
-0.129733
-0.428425
65.5796
0.130799
-0.185467
66.1987
0.318735
0.205144
68.3736
0.485011
0.335132
70.1372
0.621674
0.274194
72.3615
0.627131
0.169789
77.3514
0.515699
0.116801
91.1621
0.362981
0.0614034
116.349
0.228265
0.0136006
140.843
0.131994
-0.0193931
156.826
0.0697564
-0.0201141
166.299
0.0325473
-0.0407573
171.93
0.0143777
-0.068776
174.448
0.0113044
-0.147557
173.856
0.0306718
-0.255387
169.592
0.0886272
-0.401151
169.394
0.208775
-0.564509
171.839
0.363999
-0.685645
169.813
0.486519
-0.688511
164.259
0.551441
-0.617905
157.342
0.567916
-0.531596
150.16
0.532401
-0.38009
143.593
0.41131
-0.122823
138.301
0.183376
0.223186
133.941
-0.0899291
0.522213
128.906
-0.303934
0.690076
120.858
-0.384025
0.730824
106.342
-0.33654
0.697994
87.4302
-0.302051
0.501173
78.868
-0.298469
0.162116
82.0341
-0.309373
-0.130355
90.9129
-0.300541
-0.212228
99.9141
-0.291171
-0.0191319
95.1466
-0.194065
0.355444
70.5196
0.889494
42.1962
0.13518
-0.0687123
64.2886
0.0693613
-0.176614
78.5372
-0.0523433
-0.272039
91.0713
-0.203812
-0.190542
70.2676
-0.366961
-0.235036
64.2954
-0.427219
-0.362484
66.4561
-0.181619
-0.426022
69.1426
0.185232
-0.157186
70.8931
0.374368
0.154929
72.8819
0.45303
0.214018
77.25
0.421838
0.234025
86.4524
0.328598
0.253905
103.664
0.212061
0.212331
125.096
0.0925984
0.151642
143.619
-0.0136525
0.0950188
156.994
-0.0979276
0.0672194
166.256
-0.161118
0.0258909
171.268
-0.194444
-0.0296295
172.87
-0.191677
-0.141954
170.869
-0.138176
-0.298765
167.041
-0.0217127
-0.501482
167.275
0.124566
-0.679518
168.084
0.187455
-0.702906
162.585
0.0722249
-0.530239
154.312
-0.20361
-0.306451
146.379
-0.524452
-0.181507
138.852
-0.782717
-0.101468
132.742
-0.957343
0.0637501
128.419
-1.02603
0.296543
124.821
-0.976915
0.478444
120.568
-0.846392
0.569797
112.803
-0.664791
0.562712
100.939
-0.4683
0.511097
87.8825
-0.344563
0.366605
81.4902
-0.355533
0.144964
86.5136
-0.444775
-0.0405525
98.2814
-0.493334
-0.116755
95.0384
-0.465519
-0.0153933
77.3467
-0.323753
0.248959
66.4759
0.615193
47.3599
0.337906
-0.420179
58.1377
0.307786
-0.136207
64.5822
0.069032
0.000901376
87.3512
-0.197748
0.0775789
68.7876
-0.360347
-0.0674529
63.6599
-0.434969
-0.284716
65.9704
-0.384125
-0.475797
69.1752
-0.103104
-0.433029
72.9109
0.167967
-0.103766
79.5836
0.258684
0.14287
85.745
0.287579
0.231619
94.9386
0.278506
0.290678
108.385
0.241938
0.270169
123.91
0.176419
0.232015
138.826
0.0996021
0.181813
151.671
0.0291737
0.143714
161.397
-0.0322876
0.0921762
167.527
-0.0891672
0.0334521
170.002
-0.16364
-0.0570389
168.305
-0.287086
-0.162478
163.274
-0.482784
-0.274564
162.532
-0.767974
-0.330696
158.407
-1.14328
-0.258851
146.932
-1.54151
-0.080219
135.52
-1.89969
0.0857781
127.668
-2.17778
0.116805
123.028
-2.33256
0.0668735
120.133
-2.29266
0.0333946
117.713
-2.04643
0.0584144
115.025
-1.68726
0.126967
110.863
-1.29913
0.190338
104.863
-0.930281
0.201265
97.4892
-0.624422
0.207796
91.0162
-0.470395
0.20068
89.6191
-0.529384
0.189516
96.5168
-0.686605
0.156815
100.506
-0.812737
0.0811909
85.5618
-0.792367
-0.0077335
67.8565
-0.567049
0.0418509
61.3148
0.0894539
53.9711
0.312705
-0.728956
63.2788
0.37125
-0.207186
66.2393
0.216776
0.187656
83.8851
-0.0156048
0.289334
71.0797
-0.213303
0.131608
62.3241
-0.319459
-0.180831
65.4156
-0.329546
-0.473792
68.9123
-0.198865
-0.571366
71.2977
0.0422329
-0.337199
76.8342
0.171974
0.021788
88.27
0.19472
0.222925
97.3726
0.183915
0.318763
109.928
0.121289
0.348749
124.775
0.0320898
0.332952
140.047
-0.0837164
0.30187
153.115
-0.214317
0.276399
162.611
-0.377249
0.259552
167.435
-0.599901
0.268257
167.834
-0.94191
0.309397
164.134
-1.42715
0.381474
158.009
-2.0752
0.475386
146.553
-2.85381
0.524018
132.822
-3.53258
0.456567
126.456
-3.85663
0.273963
124.407
-3.79541
0.052722
122.618
-3.52662
-0.126939
120.328
-3.22562
-0.212209
117.509
-2.92672
-0.245967
114.33
-2.58001
-0.270655
110.832
-2.14501
-0.294447
107.091
-1.66371
-0.28098
103.361
-1.20534
-0.253453
100.294
-0.83565
-0.16719
99.3978
-0.614465
-0.0361758
102.33
-0.542294
0.108663
108.344
-0.547112
0.183347
111.407
-0.602041
0.206022
102.336
-0.659215
0.117138
77.9737
-0.538325
-0.0652699
59.6831
-0.427675
54.8531
0.183597
-0.86469
63.1239
0.27212
-0.285026
76.7039
0.336857
0.152614
92.9629
0.326836
0.290185
82.2774
0.174766
0.260009
70.8896
-0.012881
0.000686013
67.7633
-0.126927
-0.37009
71.8317
-0.0856697
-0.62858
72.6819
0.0986021
-0.525007
74.007
0.255735
-0.129196
81.2728
0.279166
0.21333
93.1243
0.236058
0.381864
108.066
0.161985
0.44413
125.355
0.0805476
0.430653
142.013
0.00220567
0.390406
155.316
-0.0712213
0.355632
164.787
-0.146954
0.342267
170.378
-0.232389
0.364859
172.181
-0.351112
0.445476
170.065
-0.52215
0.575653
166.044
-0.737357
0.743468
163.655
-1.00159
0.873073
156.106
-1.32759
0.859442
144.444
-1.65174
0.652812
135.426
-1.92297
0.363352
129.175
-2.14508
0.12256
124.182
-2.26465
-0.0756507
120.512
-2.20197
-0.294603
117.218
-1.96908
-0.49125
112.312
-1.63761
-0.61382
105.806
-1.2649
-0.640538
97.7331
-0.895911
-0.614366
89.3461
-0.592254
-0.476604
83.5956
-0.418055
-0.237201
84.1447
-0.37043
0.0157946
92.7908
-0.38988
0.185089
105.902
-0.389585
0.23889
109.067
-0.391457
0.178941
92.6717
-0.304753
-0.118861
66.6965
-0.686078
51.4342
0.139597
-0.932867
56.0988
0.30301
-0.399347
80.2906
0.489649
-0.00763623
96.345
0.603666
0.166186
90.9536
0.58412
0.250015
81.7507
0.421362
0.135029
76.9757
0.190776
-0.156359
76.886
0.0329435
-0.49337
76.6485
0.0944624
-0.600977
75.408
0.230332
-0.264119
80.264
0.220299
0.23795
91.7862
0.143129
0.482933
109.663
0.0536936
0.555566
129.342
-0.0251369
0.52304
146.291
-0.0928991
0.465236
158.82
-0.148814
0.416585
166.909
-0.192725
0.391245
171.514
-0.217963
0.397328
172.989
-0.217269
0.454616
171.24
-0.184567
0.554419
168.016
-0.0982943
0.678998
168.423
0.023687
0.795981
168.004
0.082796
0.860983
161.47
0.0102452
0.778829
153.582
-0.189198
0.602118
147.485
-0.460908
0.41791
143.281
-0.728189
0.212479
139.406
-0.920344
-0.0833768
132.5
-1.02015
-0.381896
125.464
-1.00548
-0.617655
117.303
-0.883776
-0.742907
105.401
-0.700204
-0.78219
91.0762
-0.545888
-0.637903
80.552
-0.485925
-0.332051
80.1117
-0.49209
-0.0270078
87.4344
-0.52998
0.189238
100.182
-0.496969
0.222532
106.631
-0.388427
0.121855
95.7276
-0.225034
-0.235732
69.7327
-0.878306
44.8019
0.149269
-1.04437
46.8785
0.453082
-0.620705
68.4384
0.756552
-0.2424
87.5159
0.91114
0.023566
93.3951
0.93997
0.198887
90.2532
0.848491
0.199173
87.0932
0.624099
0.0404207
84.7423
0.345964
-0.245652
82.1622
0.195268
-0.475837
78.4659
0.20431
-0.273506
81.5357
0.157856
0.302404
93.8242
0.0565459
0.610135
113.465
-0.0180748
0.648977
133.699
-0.0728434
0.587538
149.414
-0.114106
0.511913
159.96
-0.139486
0.445806
166.852
-0.152478
0.408336
170.913
-0.14855
0.398844
172.388
-0.123558
0.436725
171.033
-0.0785755
0.515878
167.575
0.00933452
0.60019
168.395
0.164021
0.659484
171.169
0.345123
0.709181
168.721
0.483193
0.671455
163.463
0.550511
0.559208
157.897
0.570533
0.414471
152.759
0.524663
0.268467
148.02
0.348381
0.0959543
143.394
0.0568357
-0.0906859
137.587
-0.260062
-0.292413
128.898
-0.474687
-0.507526
113.755
-0.531049
-0.703987
93.7161
-0.547895
-0.632088
79.5
-0.594909
-0.323378
80.0097
-0.625651
-0.0391791
85.4599
-0.630338
0.155446
92.7525
-0.577979
0.173527
97.9319
-0.41794
0.0115998
90.5656
-0.153449
-0.435117
64.4684
-1.03613
41.4099
0.141941
-1.19804
42.9542
0.502711
-0.961834
52.1446
0.896781
-0.57392
62.8282
1.18651
-0.190459
76.6107
1.30578
0.119734
86.5983
1.25004
0.262407
90.6006
1.02661
0.242932
90.8747
0.673741
0.0686547
87.4527
0.357143
-0.196538
81.7545
0.176364
-0.0968033
82.2481
0.0275362
0.470444
96.7614
-0.0895299
0.746118
119.702
-0.143061
0.714042
137.818
-0.178763
0.627745
150.421
-0.194794
0.529328
158.959
-0.193661
0.445268
164.577
-0.170487
0.385944
167.844
-0.125513
0.355209
168.924
-0.0494639
0.362208
167.685
0.0493013
0.418419
164.288
0.175068
0.476907
165.282
0.341871
0.500578
169.239
0.521459
0.542472
169.239
0.669972
0.538366
166.606
0.750398
0.492809
162.658
0.760755
0.413522
158.013
0.720379
0.31347
152.921
0.619859
0.195369
147.259
0.437644
0.0881065
140.842
0.133138
0.00713808
132.74
-0.212434
-0.147252
119.984
-0.434748
-0.457831
95.2207
-0.613938
-0.468081
78.2848
-0.795144
-0.182644
81.1298
-0.906953
0.042784
87.0285
-0.910986
0.1626
88.9204
-0.769345
0.0766852
83.8682
-0.458741
-0.231128
67.6828
-0.113812
-0.763732
49.314
-1.16889
41.5305
0.119014
-1.34123
43.0777
0.409009
-1.2789
49.8944
0.74311
-0.926776
53.3703
1.07104
-0.512542
57.1049
1.30157
-0.0822775
65.2959
1.36256
0.234084
74.7906
1.24376
0.382186
81.7055
0.963223
0.347235
84.6637
0.561678
0.177776
82.7329
0.142339
0.315898
82.8842
-0.119853
0.752538
103.149
-0.217736
0.855969
124.454
-0.260951
0.762004
139.301
-0.277227
0.64428
149.31
-0.273425
0.524215
156.106
-0.24978
0.420311
160.555
-0.206547
0.342002
163.038
-0.141237
0.289661
163.672
-0.0470731
0.267376
162.301
0.0595671
0.309761
158.635
0.175536
0.359003
159.733
0.314802
0.36244
163.956
0.470605
0.389231
165.105
0.625601
0.386649
163.882
0.747611
0.373696
161.101
0.821526
0.340613
157.162
0.823442
0.310055
152.318
0.746239
0.267814
146.564
0.591382
0.235131
139.738
0.391004
0.197701
131.407
0.061404
0.172441
120.775
-0.352038
-0.0185334
96.5094
-0.643768
-0.185143
74.7599
-0.84342
0.00212766
75.1891
-0.939119
0.150762
74.5848
-0.867236
0.113598
68.8439
-0.637436
-0.130564
58.7126
-0.331146
-0.539433
49.7642
-0.0750951
-1.0416
47.091
-1.26423
42.1205
0.0866008
-1.45054
43.2903
0.262025
-1.4795
51.0754
0.455415
-1.14416
54.6528
0.669486
-0.743685
56.331
0.863759
-0.285907
57.3554
0.953394
0.139894
61.9786
0.878602
0.448585
68.0546
0.676479
0.534226
72.3078
0.277181
0.561874
73.6081
-0.153857
0.756915
87.1957
-0.34492
0.954742
110.152
-0.397151
0.912389
126.8
-0.411446
0.7747
138.371
-0.398588
0.627503
146.076
-0.366935
0.488347
151.192
-0.315396
0.365368
154.346
-0.240607
0.26485
155.831
-0.143965
0.191192
155.724
-0.00384028
0.124751
154.004
0.138604
0.163581
150.006
0.257336
0.237092
151.465
0.384752
0.235402
155.734
0.514746
0.260481
157.766
0.640014
0.261931
157.502
0.742855
0.270896
155.696
0.810806
0.270869
152.574
0.8338
0.283675
148.388
0.804139
0.290989
143.078
0.708386
0.322278
136.687
0.54817
0.346024
128.849
0.323436
0.384217
119.107
-0.0909031
0.390275
103.081
-0.463822
0.19348
68.8961
-0.595571
0.135253
63.9978
-0.627634
0.181458
60.5765
-0.534478
0.0190614
55.1309
-0.349894
-0.321642
50.1887
-0.173155
-0.734571
49.1385
-0.04112
-1.19469
48.0608
-1.3243
42.1199
0.0436625
-1.51388
42.7786
0.110302
-1.56579
51.1723
0.177738
-1.2288
55.2503
0.258213
-0.834758
56.8453
0.325608
-0.357911
56.6003
0.327532
0.134737
57.7579
0.224834
0.541865
61.8134
0.0175914
0.725027
65.5146
-0.288447
0.861762
77.9493
-0.511636
0.988679
96.5693
-0.579919
1.02608
113.859
-0.581649
0.911608
126.577
-0.560274
0.747207
135.146
-0.521593
0.582215
140.707
-0.465818
0.42691
144.111
-0.394513
0.290319
145.816
-0.306489
0.175194
145.963
-0.186845
0.0717917
144.474
-0.0140481
-0.0464032
139.932
0.145799
0.000527377
136.521
0.262832
0.11715
139.988
0.372011