/*--------------------------------*- C++ -*----------------------------------*\
  =========                 |
  \\      /  F ield         | OpenFOAM: The Open Source CFD Toolbox
   \\    /   O peration     | Website:  https://openfoam.org
    \\  /    A nd           | Version:  11
     \\/     M anipulation  |
\*---------------------------------------------------------------------------*/
FoamFile
{
    format      ascii;
    class       volVectorField;
    location    "1000";
    object      U;
}
// * * * * * * * * * * * * * * * * * * * * * * * * * * * * * * * * * * * * * //

dimensions      [0 1 -1 0 0 0 0];

internalField   nonuniform List<vector> 
128000
(
(5.05214 -2.02839 20403.6)
(-1.28855 113.262 26093.2)
(-19.1713 195.927 26288)
(-19.2213 264.601 27408.2)
(-53.3604 367.823 28490.9)
(-75.4096 433.638 29193.8)
(-113.215 500.082 29673.9)
(-145.962 529.692 29823.7)
(-180.23 534.607 29615.5)
(-200.336 499.783 28974.2)
(-200.272 441 28135.7)
(-188.175 371.819 27113.9)
(-166.98 294.488 25859)
(-148.858 187.236 25880)
(-108.769 66.9394 32341)
(-68.6256 34.9749 39497.8)
(-30.8231 56.7842 43261.2)
(-39.0471 90.9179 44032.4)
(-72.2898 60.3646 41232.9)
(-102.921 -36.5179 36801.7)
(25.6564 -172.527 37224.2)
(133.319 -175.137 40207.1)
(176.916 -167.073 39462.6)
(186.189 -174.986 34272.3)
(242.539 -190.064 28217.1)
(332.589 -218.299 26864.3)
(414.44 -246.143 27973)
(491.339 -266.394 29114.6)
(562.021 -277.119 29998)
(624.619 -275.262 30715)
(668.862 -256.98 31270.2)
(687.907 -225.158 31537.4)
(671.535 -183.174 31498.2)
(633.03 -144.336 31178.5)
(564.619 -101.32 30579.3)
(488.387 -72.6542 29732.7)
(393.335 -38.8496 28650.8)
(301.41 -25.1659 27328.3)
(226.643 -16.5552 26652)
(103.088 4.50523 25079.7)
(-4.04654 -124.034 26004.7)
(53.6679 -4.23056 27607.4)
(30.7964 107.628 29023.8)
(41.7984 169.49 30666.4)
(34.6164 311.284 32212.5)
(8.72106 381.051 33100.2)
(-26.6277 465.662 33733.7)
(-77.3938 514.297 33921.8)
(-135.341 531.651 33654.7)
(-201.214 499.57 32898.9)
(-240.702 419.998 31720.4)
(-245.61 314.733 30192.5)
(-228.752 188.416 28196.9)
(-190.047 25.0294 28105.5)
(-125.471 -68.7168 38560.6)
(-45.7213 -37.0292 46916.8)
(14.4569 -27.1431 48649.2)
(25.4479 -18.2112 48342.3)
(20.4324 -58.5227 45241.5)
(-99.16 -104.958 36490.9)
(-96.9306 -137.895 35226.9)
(-51.9291 -50.1341 42731.1)
(-13.1538 -62.4057 46974.7)
(-9.72639 -101.384 45795.4)
(14.9498 -171.177 35823.9)
(135.398 -246.963 29229.9)
(287.441 -298.738 30515.6)
(413.661 -321.894 32253.6)
(521.4 -316.525 33508.6)
(606.667 -285.002 34412.3)
(660.107 -229.181 35038.5)
(675.351 -164.198 35483.8)
(648.858 -102.619 35617)
(598.237 -51.1683 35376.9)
(511.579 -8.07787 34700.2)
(432.375 17.8971 33705.3)
(302.333 38.9785 32200.3)
(225.709 24.9854 30375.6)
(111.458 53.055 28654.9)
(15.3445 12.5576 26639.7)
(-19.244 -197.583 26179.3)
(27.8708 -110.526 28959.7)
(59.5755 -0.209988 31115.6)
(70.9032 88.5796 32773.7)
(84.795 195.931 34190.1)
(89.5092 281.85 35295.5)
(73.8686 370.563 36042.1)
(39.1897 426.415 36166.1)
(-16.8114 453.623 35646)
(-103.326 428.15 34396.3)
(-188.636 338.53 32880.5)
(-230.506 207.436 31023)
(-252.225 59.4013 28763.2)
(-239.683 -134.265 29713.5)
(-172.603 -204.739 42454.8)
(-70.8833 -146.64 47412.9)
(34.9712 -108.015 48339.4)
(73.6413 -93.5496 49329.1)
(83.0524 -76.0804 50045.7)
(2.04381 -102.3 47476.5)
(-120.752 -8.9174 43732.8)
(-130.352 51.5872 48556.6)
(-158.383 5.45998 50838.9)
(-170.185 -85.8125 50726.4)
(-195.305 -202.36 42855)
(-93.9749 -255.415 30782)
(96.987 -293.317 30674.5)
(256.117 -278.749 32621.7)
(390.692 -247.015 34021)
(493.831 -186.669 34994)
(556.087 -108.469 35970.1)
(572.01 -36.3859 37026.6)
(542.369 19.4637 37607)
(492.223 54.639 37625.7)
(402.549 78.9523 36945.9)
(321.246 78.6059 35866)
(200.485 68.0323 34248.6)
(110.874 61.5857 32448.3)
(-6.25727 36.4598 30179.5)
(-118.712 -10.6941 26684.2)
(-20.4053 -265.985 27311.5)
(40.9522 -171.088 30630.5)
(72.2022 -84.5142 32753.3)
(117.096 3.16533 34463.4)
(137.596 113.566 35826.9)
(149.097 196.245 36821.4)
(156.174 281.82 37551.8)
(130.807 340.159 37656.8)
(94.0044 366.319 36876.4)
(4.17159 338.069 34945.8)
(-124.743 238.681 32694.7)
(-197.479 78.532 30702.5)
(-251.755 -92.1759 28558)
(-270.445 -290.465 31537.8)
(-188.236 -300.93 43145)
(-58.2589 -207.97 42212.6)
(16.3786 -161.794 39975.1)
(76.2819 -103.068 38745.3)
(80.2628 -67.4284 38148.3)
(63.5958 -11.4783 36762.3)
(-42.1742 75.2994 33909.8)
(-140.079 54.3728 37121.6)
(-212.064 -18.5207 42176)
(-263.855 -103.676 46250.7)
(-326.067 -218.201 45975.9)
(-317.054 -258.452 34146.3)
(-124.398 -276.478 30136.7)
(62.6719 -236.311 31768.3)
(219.718 -183.689 32981.7)
(356.186 -97.7947 33810.3)
(434.375 0.553066 35648.4)
(461.802 74.305 37672)
(435.23 119.308 38785.6)
(396.394 144.697 39085.6)
(303.364 151.43 38449.5)
(226.873 133.669 37415)
(117.816 129.565 35990.2)
(13.2704 84.1447 34162.9)
(-63.3888 51.3921 31745.7)
(-175.078 -0.176298 28208.2)
(-54.0741 -359.726 28290.2)
(28.9573 -306.697 32047.3)
(83.4589 -187.574 34066.4)
(132.345 -101.285 35736.7)
(189.576 7.68916 37065)
(213.207 100.375 38071.6)
(237.881 182.74 38741.3)
(232.048 240.613 38787.4)
(206.403 268.713 37898.9)
(149.76 250.084 35575.9)
(-11.4677 132.839 30755.1)
(-159.093 -22.8577 29254.3)
(-237.985 -213.583 28065.8)
(-307.014 -400.998 33449.5)
(-221.458 -365.627 41374.1)
(-67.8966 -263.727 36872.9)
(59.4438 -185.636 33501.2)
(104.538 -112.508 31692.5)
(119.615 -22.7826 31502.4)
(116.29 48.3082 31155.9)
(67.9149 85.3252 30040.4)
(-50.0099 48.0792 30429.5)
(-191.003 -9.18715 34913.8)
(-286.866 -91.2777 40296.3)
(-385.698 -200.368 44229.4)
(-459.753 -251.76 38583.6)
(-332.824 -241.576 30637.1)
(-117.029 -168.977 30299)
(55.1571 -87.1951 30726)
(202.256 37.0411 31398.9)
(299.465 143.875 35037.5)
(331.658 203.04 38129.3)
(313.231 230.217 39684.9)
(272.055 239.565 40160.6)
(196.721 220.802 39725.7)
(113.591 198.385 38718.8)
(0.163236 154.773 37290.1)
(-94.4989 93.0059 35465.7)
(-222.529 53.6616 33331)
(-306.345 -37.2421 29506)
(-73.0346 -415.839 28901.6)
(2.93958 -364.837 32807)
(88.0743 -262.862 35024.4)
(144.961 -176.451 36590.6)
(211.15 -77.4061 37904.9)
(256.344 14.6431 38994.3)
(292.896 94.9439 39794.4)
(304.157 150.524 39964)
(290.906 171.123 39055)
(249.11 160.635 36585.1)
(141.155 55.0749 32448)
(-85.7173 -75.8213 27753.9)
(-219.324 -297.246 27898.7)
(-326.067 -436.437 34817.6)
(-276.83 -356.983 39783.3)
(-150.203 -249.434 35217.2)
(-42.548 -141.576 31346.8)
(113.362 -47.4852 30356.8)
(153.512 0.499053 30817.4)
(160.74 52.1986 30936)
(145.078 56.698 29970.4)
(73.4756 14.1456 29940.4)
(-84.5247 -37.4796 32035.1)
(-249.875 -120.358 37062.7)
(-376.324 -194.771 41862)
(-503.143 -246.756 40730.6)
(-457.309 -205.79 32749.5)
(-281.939 -112.919 30182.2)
(-91.8816 13.8896 29283.1)
(61.322 163.232 31534.5)
(158.735 247.103 35486.6)
(199.963 293.81 38800.4)
(196.121 307.532 40717.1)
(162.915 300.534 41308.9)
(96.6111 270.818 40835.3)
(15.481 228.807 39718.4)
(-84.4601 171.754 38217.1)
(-173.816 110.945 36385.9)
(-286.61 39.4796 34141.6)
(-377.269 -56.662 30219.1)
(-109.575 -470.079 29262.5)
(-34.0356 -441.781 33313.7)
(67.2781 -349.137 35615)
(147.931 -256.699 37123)
(232.588 -154.966 38327.5)
(289.363 -60.7821 39523.4)
(342.41 18.9016 40623)
(364.351 77.3703 41241.2)
(368.266 95.5697 40828.8)
(327.155 89.9439 38735.8)
(255.319 10.1448 34525.8)
(33.6617 -116.294 27137)
(-183.961 -310.45 28250.9)
(-311.215 -407.927 35193.3)
(-295.372 -289.448 37725.7)
(-213.743 -154.645 34551.2)
(-140.333 -55.7868 31639.6)
(-80.1979 7.28069 29774.7)
(116.628 26.0664 30594.1)
(183.243 39.4994 31237.9)
(184.709 16.4133 30372.4)
(161.876 -26.8791 30633)
(73.4679 -76.7296 32393.7)
(-112.376 -126.531 35378.7)
(-285.503 -187.145 39663.3)
(-459.667 -225.188 40978.8)
(-477.521 -167.63 34498.2)
(-349.546 -42.0104 31161.6)
(-191.476 120.32 29796)
(-43.7564 261.161 33087.5)
(46.9199 338.612 37330)
(89.3456 377.449 40594.4)
(91.5964 377.28 42327.7)
(64.2209 359.812 42635.5)
(3.4282 314.037 41856.6)
(-72.0152 262.009 40477.9)
(-177.999 189.562 38905.5)
(-281.485 104.175 37199.2)
(-394.757 12.2807 34835)
(-470.395 -97.9293 30772.1)
(-136.129 -483.692 29256.5)
(-85.8927 -473.878 33335)
(31.8633 -389.463 35514.2)
(118.179 -300.713 36933.7)
(221.07 -201.215 38037.5)
(296.001 -107.057 39315.6)
(361.147 -30.9544 40862.4)
(395.27 25.1588 42221.4)
(411.803 46.6801 42771.7)
(388.043 38.1845 41865.3)
(334.233 -4.48531 39190.6)
(174.834 -116.764 34597.3)
(-119.403 -248.263 28597.6)
(-290.944 -312.739 34205.9)
(-284.872 -180.556 35144.6)
(-249.926 -62.8751 33230.9)
(-186.128 35.5707 31238.6)
(-155.423 50.1261 29740)
(-113.421 25.0287 29571.8)
(106.082 21.0175 31860.2)
(150.938 6.55395 31020.7)
(163.455 -54.1293 30284.8)
(162.093 -101.103 31682.2)
(37.0958 -150.868 33924.1)
(-131.929 -178.685 36909.5)
(-340.525 -204.379 39400.8)
(-416.541 -129.088 34971.1)
(-326.173 11.1696 31788)
(-212.341 196.314 32908.1)
(-102.198 330.218 36931)
(-32.996 396.636 40787.2)
(5.45809 421.758 43344.5)
(12.7391 411.059 44353.8)
(-9.14217 381.829 43958.3)
(-60.222 326.681 42551.7)
(-134.849 264.861 40714)
(-235.535 175.632 39010.5)
(-336.809 86.2301 37201.5)
(-459.235 -25.9234 34944)
(-530.525 -133.226 31013.8)
(-164.976 -471.264 28834.4)
(-142.961 -473.471 32859.9)
(-33.9211 -402.037 34719.1)
(78.2694 -316.219 35795.8)
(189.217 -224.993 36726.8)
(274.392 -123.274 37913.5)
(354.982 -45.1767 39969)
(403.989 7.40787 42243.8)
(428.811 26.2222 43999.2)
(419.032 18.9961 44402.1)
(377.204 -16.179 43039.1)
(281.878 -80.4857 39514.3)
(37.5011 -174.914 32784.1)
(-256.123 -168.884 32578.9)
(-277.111 -70.9213 32656)
(-261.296 28.114 31603.6)
(-231.562 67.8981 30392.8)
(-193.201 45.8169 29371.3)
(-167.128 10.7287 29513.9)
(-100.441 23.1457 31758.2)
(50.5946 8.79315 33010.7)
(43.9499 -27.1724 30900.3)
(109.549 -82.7477 30724.9)
(103.82 -112.312 31932.4)
(14.5737 -145.57 33817.2)
(-154.349 -163.151 36015.3)
(-291.843 -93.3233 34107.2)
(-265.974 87.4669 32794.5)
(-195.803 284.353 37453.4)
(-126.098 388.64 41753.5)
(-77.0887 436.471 44738.2)
(-42.8757 446.793 46193.1)
(-33.4689 426.441 46163.8)
(-49.3715 390.028 44791.9)
(-95.5302 327.449 42524)
(-166.477 256.727 40109.1)
(-274.646 160.363 38392.7)
(-384.425 53.0283 36640.7)
(-513.142 -72.2959 34651.2)
(-582.414 -176.716 31010.6)
(-171.451 -420.235 28047.9)
(-202.063 -417.468 31819.6)
(-123.639 -354.462 33265.8)
(-37.1957 -254.764 33422.1)
(113.803 -168.631 33906.6)
(224.35 -93.6305 34871.5)
(306.531 -27.7183 37416.3)
(369.714 18.6896 40745.7)
(412.256 37.3749 43976.8)
(417.912 29.8865 45942.7)
(396.459 -0.320983 46353.9)
(332.675 -41.1767 44868.3)
(222.322 -92.8971 41584.6)
(-38.8402 -89.0519 35027.8)
(-216.192 -23.2879 32119.9)
(-223.771 18.5497 31038.2)
(-223.268 31.5872 30052.7)
(-206.821 -15.5549 29303.7)
(-179.454 -31.9945 30162.1)
(-135.412 22.7756 33093.7)
(-88.6746 37.8159 35939.3)
(-59.7371 2.32766 34989.7)
(-63.3502 -31.7113 32931.5)
(-22.59 -65.3171 33003.8)
(-32.8097 -66.8447 33643.3)
(-97.9139 -58.8737 34722.7)
(-197.731 55.9348 35689.9)
(-219.249 242.212 40471.8)
(-186.549 362.775 44338.7)
(-145.013 419.867 46972.1)
(-101.037 441.241 48366.1)
(-67.3281 435.617 48466.6)
(-50.9699 407.674 47241.2)
(-61.7924 363.954 44677.2)
(-96.6243 293.415 41259)
(-164.477 221.495 38085.6)
(-274.207 112.008 36051.8)
(-394.218 2.18605 34884.2)
(-534.067 -124.819 33789.3)
(-603.955 -215.95 30723.8)
(-162.231 -354.656 27106.4)
(-221.607 -321.483 30439.9)
(-192.095 -236.586 31532.4)
(-149.383 -133.694 31268.5)
(-76.0818 -55.5227 29424.9)
(78.7738 17.826 29676.8)
(204.024 69.3101 32943.8)
(298.581 68.4836 37301.9)
(360.309 64.8582 42238.5)
(384.765 54.5686 45863.8)
(380.145 24.9375 48088.1)
(338.591 -17.5952 48460.6)
(277.225 -64.6285 46721.4)
(168.219 -93.0743 43050.1)
(3.92552 -61.9196 36612.4)
(-120.51 -59.7443 32759.2)
(-163.927 -57.1741 30797.1)
(-176.465 -84.1921 30419.5)
(-171.296 -39.0097 32707.6)
(-147.335 25.6724 36171.8)
(-120.778 60.8709 38435.9)
(-131.891 42.3224 38521.1)
(-141.747 40.0079 37591.5)
(-156.166 55.0064 37818)
(-166.66 80.6197 38812.1)
(-191.678 140.411 41225.4)
(-228.909 244.945 44795.7)
(-230.007 337.209 47729.4)
(-193.626 388.965 49719.6)
(-148.885 416.151 50765.3)
(-102.787 417.95 50797.2)
(-63.2465 403.369 49710.1)
(-40.8506 370.127 47308.9)
(-42.3048 317.269 43292.4)
(-56.8365 239.562 38331.3)
(-108.013 159.116 34112)
(-224.192 50.4986 32089.7)
(-366.398 -47.3924 32320.2)
(-524.547 -173.195 32584.1)
(-606.935 -249.158 30235.1)
(-142.335 -281.548 25900.3)
(-211.229 -208.638 28643.4)
(-221.694 -102.709 29394.1)
(-206.203 29.0786 29087.1)
(-190.964 125.774 28079.9)
(-151.643 190.762 27111.9)
(-39.6924 200.548 26821.1)
(83.5027 187.878 31343.7)
(239.533 137.675 38546.3)
(317.805 97.6962 43974.1)
(336.835 67.7912 48002.7)
(313.795 27.0613 50586.7)
(272.118 -22.759 51024.8)
(209.858 -63.6745 49644.9)
(138.671 -86.432 46332.3)
(34.6404 -91.521 40098.4)
(-72.3758 -103.654 35834)
(-124.417 -92.384 35442.2)
(-142.097 -20.6682 38957.4)
(-135.171 39.9273 41478.9)
(-129.576 60.5299 42801.7)
(-139.585 65.6653 43138.1)
(-162.197 85.4855 43671)
(-178.696 122.503 44966.8)
(-197.191 175.358 47378.9)
(-215.283 231.806 49903.2)
(-224.824 282.81 51676.7)
(-207.161 332.189 52829.4)
(-173.113 361.04 53321)
(-132.696 372.623 53097.5)
(-87.5063 364.314 52066.6)
(-44.6293 342.625 49994.8)
(-18.3827 302.688 46387.4)
(-2.54444 224.01 40190.5)
(17.6168 123.334 33270.1)
(-18.5255 62.7654 28730)
(-146.986 -4.01003 28181.3)
(-317.82 -87.8381 29984.2)
(-494.911 -211.862 31371.7)
(-590.462 -275.713 29606.5)
(-125.037 -191.362 24836.6)
(-184.122 -60.3763 26704.1)
(-230.451 71.212 27399.5)
(-248.086 215.708 27646.9)
(-260.588 321.901 27931.8)
(-261.667 387.169 28599.9)
(-238.21 381.977 29359.6)
(-196.645 298.699 29771.7)
(-59.3879 205.014 31513.2)
(170.227 129.255 40093.9)
(261.545 105.989 45843.3)
(261.96 68.8057 50591.9)
(234.566 20.1563 52888.9)
(187.102 -29.2952 53398.8)
(139.318 -63.9884 52493.8)
(75.1341 -94.2952 49766.5)
(-2.37205 -96.046 45803.2)
(-80.8197 -68.3468 44719.3)
(-108.746 -4.30785 46771.2)
(-120.17 37.8853 47058.8)
(-119.066 69.7247 47512)
(-139.97 93.0469 48337)
(-156.81 129.39 49798.1)
(-176.416 176.255 51944.8)
(-187.713 218.906 53702.9)
(-194.304 259.083 54880.2)
(-191.207 295.996 55504.7)
(-178.186 327.141 55636.2)
(-150.584 337.239 55238.3)
(-114.657 335.005 54250.2)
(-71.0744 310.681 52525.9)
(-21.3895 279.33 49691)
(1.6172 211.941 44602.7)
(57.7248 67.0161 34174.9)
(114.452 3.05425 30400.3)
(115.379 12.4686 29638.6)
(-7.91351 -45.1045 27063.1)
(-238.262 -117.785 28331.5)
(-445.323 -244.883 30319.4)
(-561.84 -291.442 28871.3)
(-98.7092 -54.6138 29468.1)
(-133.985 90.3384 33101)
(-198.904 231.828 36169.1)
(-234.39 355.97 38711.2)
(-280.812 435.44 39446.1)
(-317.663 442.337 39003)
(-309.74 386.2 37520.3)
(-295.712 281.415 35009.3)
(-268.925 144.65 32822.3)
(-87.8336 86.1414 34224.2)
(151.383 111.19 41750.9)
(200.693 107.988 48848.3)
(189.549 65.9167 53132)
(156.157 25.2402 55129.2)
(120.205 -11.8696 55840.7)
(78.9499 -33.897 55587.8)
(26.385 -50.4014 53942.6)
(-29.5592 -29.9329 52943)
(-58.0102 8.69785 53029.5)
(-72.2243 43.5297 51925.5)
(-79.8493 74.1606 52228.8)
(-95.2123 104.802 53525.8)
(-113.575 141.791 55374)
(-131.599 181.244 56706)
(-147.798 218.633 57483.5)
(-159.765 255.722 57776.2)
(-164.931 282.768 57645)
(-159.703 300.556 57103.8)
(-140.051 295.178 56147.9)
(-112.917 276.997 54682)
(-66.8882 234.513 52509.7)
(-22.8728 191.298 49057.4)
(-13.9173 50.2253 40651.6)
(73.8078 -82.1273 33149.1)
(167.454 -62.6083 33789)
(211.578 -56.6159 32847.3)
(133.595 -96.3615 29441)
(-105.712 -145.18 27225.4)
(-371.188 -259.744 29147.9)
(-524.162 -296.987 28029.1)
(-39.9416 15.1893 38110.5)
(-55.1907 97.7326 44968.4)
(-91.2818 199.454 46321.3)
(-100.748 274.482 43202.8)
(-133.13 332.717 39615.5)
(-210.36 318.853 38070.8)
(-249.258 245.765 36513.4)
(-263.76 141.085 34296.9)
(-258.636 40.6619 32178.8)
(-205.131 32.179 31814.5)
(-8.1954 81.6118 35514.7)
(127.455 120.649 45038.8)
(140.006 93.2829 51888.1)
(115.88 51.5778 55484.2)
(92.2246 12.893 57193)
(56.5185 -15.959 57881.3)
(31.0648 -27.2369 57790.2)
(-11.3791 -14.9099 57336.7)
(-27.9942 14.227 56781.4)
(-51.1488 47.9575 55401)
(-57.6981 85.5993 55798)
(-77.1117 125.689 57144.7)
(-88.9046 167.778 58392.3)
(-104.136 212.342 59134.6)
(-115.617 249.197 59345.8)
(-129.458 279.823 59112.6)
(-139.811 296.529 58499.6)
(-147.781 296.753 57570)
(-141.216 274.115 56348)
(-121.8 232.888 54724.6)
(-79.6504 175.642 52402.6)
(-38.0927 87.5271 48515.9)
(-30.8603 -83.4041 37627)
(26.6738 -141.221 35241.1)
(176.977 -114.128 38522.9)
(257.805 -98.0068 39034.4)
(250.373 -108.107 35646.5)
(61.0018 -149.308 28653.4)
(-259.075 -243.506 27732.2)
(-477.686 -291.871 27077.1)
(-0.533335 7.68828 41711)
(27.7309 77.5398 48059.5)
(11.1893 162.788 47584.8)
(8.64005 219.178 40756.6)
(4.40529 254.544 35077.2)
(-96.8477 228.767 33549.9)
(-171.906 129.32 33331.1)
(-226.66 40.5838 32353.1)
(-245.878 -30.8838 31081.6)
(-218.763 0.440007 30714)
(-108.172 89.6266 32376.3)
(18.9348 128.683 39083.5)
(75.5014 123.871 48626.4)
(72.997 87.8739 54716)
(60.911 48.9543 57756.6)
(43.5613 28.5413 59117.5)
(28.9062 16.3154 59787.3)
(12.187 23.0655 59754.4)
(7.14736 40.8738 59281.7)
(2.56333 67.8564 57886.5)
(-1.96867 98.604 58011.5)
(-13.3621 132.324 59226.1)
(-32.3718 170.685 60077.5)
(-57.681 212.145 60249.9)
(-85.6464 247.718 59873.4)
(-112.007 278.922 59081.7)
(-135.844 290.012 58048.9)
(-154.668 278.134 56896.6)
(-159.595 232.374 55673.1)
(-152.242 170.968 54175.4)
(-132.644 89.0573 51972.9)
(-104.231 -21.2265 48088.6)
(-87.4005 -159.836 37211.6)
(-37.7236 -165.754 35588.7)
(107.751 -142.17 40159.7)
(203.643 -110.266 44399.1)
(235.575 -108 45525.6)
(147.451 -128.659 39295.9)
(-123.692 -205.445 28127.9)
(-429.566 -277.729 25973.7)
(14.0145 -20.4503 43699)
(57.2449 70.4138 48543.9)
(83.9853 128.468 48024.6)
(65.5972 165.578 38197.5)
(113.721 169.517 32173.4)
(24.3278 117.141 30228.4)
(-95.7253 38.6312 30699.7)
(-159.731 -33.9686 30501.8)
(-202.957 -55.0019 29901.6)
(-207.553 2.17165 29669.4)
(-149.033 82.6837 30468)
(-69.8287 128.02 35535.5)
(-0.986654 117.089 45217.4)
(22.7854 81.7211 53245.4)
(34.5902 42.2934 57445.9)
(24.9811 15.4052 59589.8)
(27.1238 0.452879 60479.4)
(13.1919 3.45935 60663.9)
(17.185 19.3816 60129)
(10.0885 51.9328 58586.7)
(13.3743 92.5702 58772.4)
(3.46603 145.075 60022.8)
(-3.75561 203.303 60419.4)
(-21.8893 257.618 59966.6)
(-36.9202 288.583 58944.9)
(-58.7411 299.828 57609.6)
(-87.3111 284.681 56228.2)
(-125.684 242.417 55019.5)
(-151.634 180.164 54075.5)
(-148.78 100.437 52917.8)
(-121.769 -8.29022 51100.6)
(-108.261 -126.998 46476.3)
(-111.023 -211.628 37383.2)
(-67.1731 -179.681 35246.9)
(62.7462 -131.185 39263)
(152.111 -69.3853 44875.1)
(193.459 -65.9119 50116.7)
(119.616 -81.582 49376.8)
(-31.7395 -168.177 34994.1)
(-358.718 -260.564 24946.7)
(3.30029 -35.0959 43169.1)
(66.7749 78.0477 47580.1)
(110.691 117.904 48115.6)
(105.502 105.51 36359.5)
(144.913 85.4537 30957.7)
(159.572 40.5737 30259.9)
(-5.87775 0.0184114 29360.1)
(-135.6 -24.2647 29245)
(-178.848 -6.83045 29024.5)
(-200.013 61.4882 29063.1)
(-171.75 123.528 30246)
(-132.425 130.962 34807.2)
(-83.6328 108.504 43488.5)
(-44.5753 81.4173 51667.5)
(-17.0914 55.6755 56623)
(-2.07465 39.6964 59260.5)
(12.432 31.161 60631)
(25.773 35.8246 61041.2)
(46.7801 49.9539 60519.9)
(68.56 75.8612 58883.3)
(87.0632 105.552 58815.2)
(92.2091 146.943 59820.5)
(74.1308 191.985 59425.1)
(37.2671 222.254 57932.1)
(2.97391 225.492 56073.1)
(-19.74 222.899 54216.9)
(-41.4948 198.844 52668.1)
(-67.8513 150.449 51670.9)
(-92.0883 52.0443 51116.7)
(-108.2 -79.4547 50393.4)
(-102.69 -193.428 48543.4)
(-88.4599 -249.598 44016.1)
(-87.6481 -254.117 37404.3)
(-65.6431 -189.773 34975)
(29.1678 -121.52 37839.2)
(100.139 -44.9372 43774.1)
(151.908 -32.0292 50415.2)
(91.7144 -52.9965 50493.6)
(-12.2886 -171.271 39519.4)
(-267.752 -262.8 25049.4)
(-52.1807 17.4428 37723.1)
(25.6117 112.161 43528.5)
(91.7244 95.2074 47848.4)
(92.9367 48.4188 35136.3)
(152.046 -0.654371 30704.3)
(196.944 -4.06369 30418.7)
(186.957 -15.2176 30436.7)
(-30.0783 6.33967 30109.5)
(-121.344 12.826 29960.4)
(-149.327 55.9112 30831.3)
(-144.782 55.5602 33599)
(-131.471 40.4604 39340.1)
(-93.1871 20.9622 46477.9)
(-56.9844 11.4845 52384.8)
(-15.7173 -5.4741 56372.1)
(0.890695 -21.6331 58927.5)
(25.5613 -35.5701 60080.6)
(35.4549 -39.8828 60176.8)
(57.6188 -30.8389 59176.3)
(71.4117 -1.17568 57702.4)
(94.247 50.8259 57785.3)
(106.391 130.596 58218.5)
(117.453 195.673 56608.7)
(123.883 199.828 54143.9)
(158.257 138.846 51891.7)
(206.018 45.9481 49863.7)
(234.592 -62.8574 48417.1)
(207.287 -179.626 47703.5)
(153.031 -300.798 47351.3)
(94.8352 -357.703 46843.3)
(55.7743 -362.395 45015.8)
(18.0909 -326.317 41495.8)
(-11.7647 -273.148 37327.8)
(-15.1832 -185.909 35866.1)
(54.3695 -102.295 39585.2)
(143.256 -55.2484 46931.3)
(188.342 -75.2443 47534.5)
(131.451 -128.115 40644.7)
(38.7734 -197.877 36849.5)
(-153.59 -249.135 27815.6)
(-23.2789 138.237 33910.6)
(-82.8597 135.77 35599.1)
(-12.4176 102.342 45678.4)
(43.8241 0.497768 34231.8)
(113.205 -44.7832 30270.4)
(170.79 -28.272 30074.3)
(218.671 -1.08783 30334.4)
(153.965 12.8292 30856)
(-38.1214 10.0095 32605.4)
(-99.1289 6.40025 34110.7)
(-119.626 7.1258 36778.9)
(-127.407 0.426586 41002.2)
(-112.287 3.36029 45899.9)
(-88.3788 5.37364 50493.5)
(-58.214 -0.771448 54312.8)
(-31.5842 -4.29348 57053.5)
(-4.41518 -7.20887 58614.3)
(27.0484 2.58445 59025.3)
(71.7739 21.2677 58139.1)
(134.025 47.2553 56258.1)
(215.593 61.316 56008.3)
(293.187 41.4674 54737.5)
(337.435 -58.4197 51035.4)
(347.66 -223.215 47430.6)
(351.721 -386.349 45139)
(397.4 -487.636 44058.2)
(458.978 -531.78 43693.3)
(485.14 -552.545 43599.3)
(441.902 -536.422 43505.8)
(350.369 -493.241 42939.9)
(246.559 -433.147 41711.2)
(161.744 -349.179 39939.3)
(91.4551 -264.98 38517.9)
(51.561 -184.626 39295.2)
(68.8271 -150.503 43993.2)
(133.659 -170.949 47807.3)
(206.693 -188.084 42613.7)
(244.343 -212.751 35483.1)
(159.625 -238.91 33801.9)
(-3.56252 -233.29 31510.6)
(107.49 220.291 36920)
(-71.1742 158.5 36500.1)
(-130.559 39.9616 43865.3)
(-89.4414 -31.5118 35362)
(35.0211 -38.5385 29633.7)
(134.77 -7.21382 29819)
(199.131 26.6825 30215.3)
(188.59 42.2035 30168.1)
(81.1698 40.1245 31477.5)
(-57.4835 22.1235 35111)
(-84.9731 -7.92386 37717.3)
(-112.801 -14.9491 41582.2)
(-95.5836 -30.2307 46218.6)
(-79.1173 -37.889 50936.8)
(-42.021 -54.8778 54828.2)
(-14.2391 -72.5223 57481.6)
(28.2021 -95.2841 58582.5)
(68.3084 -126.976 58274.9)
(131.831 -178.006 56703.4)
(217.895 -263.816 54459.6)
(334.498 -381.821 50526.5)
(485.66 -541.938 45903.1)
(658.373 -717.318 43914.3)
(778.238 -831.666 43533.6)
(815.219 -850.556 43350.7)
(785.535 -793.725 43092.8)
(737.798 -722.732 42741.7)
(691.968 -654.241 42350.1)
(636.001 -592.742 41923.7)
(550.213 -519.516 41481)
(443.071 -426.598 41114.1)
(332.079 -326.878 41087)
(226.013 -243.276 42061.9)
(137.387 -191.332 44868)
(86.8962 -184.756 49387.6)
(78.3204 -192.213 52982.5)
(96.064 -194.525 50960.9)
(158.862 -182.638 40792.5)
(203.201 -166.585 32900)
(185.793 -42.6794 32013.6)
(197.845 238.243 37065.3)
(-10.127 125.393 42503.8)
(-133.248 25.7999 48848.1)
(-189.116 18.3819 41127.7)
(-131.329 6.73937 33839.2)
(4.53061 42.0746 31011.9)
(141.222 80.7523 31614)
(187.854 110.883 30860.9)
(101.316 84.8003 30418)
(-44.9856 58.2012 32432)
(-118.445 11.8935 36184.1)
(-138.817 -14.8261 41001.5)
(-133.682 -44.1045 46569.7)
(-113.351 -56.5547 51798.3)
(-88.6558 -71.8264 55770.2)
(-67.6936 -79.3598 58407.9)
(-52.1855 -98.638 59769.3)
(-44.8717 -120.758 59938.6)
(-46.7833 -165.242 58900.6)
(-48.5328 -224.428 57362.1)
(-44.3922 -307.359 56546.9)
(-14.462 -373.271 54088.2)
(77.081 -411.561 50304.2)
(222.744 -415.182 47523)
(370.125 -397.901 45795.4)
(486.262 -390.258 44595.4)
(558.14 -412.922 43955.1)
(573.736 -422.851 43543.2)
(551.95 -385.194 42608.9)
(507.692 -304.354 41110.6)
(435.967 -225.122 39003.3)
(348.252 -143.731 36728.5)
(246.515 -91.0437 35501.1)
(148.556 -72.4284 37028.2)
(84.5971 -100.304 42451.1)
(56.4226 -130.95 50562.5)
(50.535 -168.289 54541.7)
(45.8667 -154.709 48710.1)
(120.165 -107.064 36970.7)
(197.442 100.124 30204.8)
(242.228 233.599 33336.9)
(27.8507 136.122 44986.8)
(-140.843 73.3159 51123.8)
(-231.008 87.426 45883.9)
(-235.437 85.517 39359.6)
(-168.011 106.991 35503.7)
(-5.428 126.395 34094.4)
(127.186 155.075 32777.8)
(158.002 133.415 31202.2)
(0.161051 95.9766 32236.9)
(-101.389 11.4985 35887.8)
(-140.152 -46.8757 41859.2)
(-128.213 -83.428 48330.2)
(-107.878 -95.244 53658.2)
(-74.015 -100.215 57340.2)
(-53.9358 -101.557 59476.9)
(-31.8551 -106.854 60484.4)
(-28.3053 -113.761 60531.7)
(-33.3853 -129.867 59610.5)
(-63.3038 -148.646 58337.3)
(-102.503 -172.55 58482)
(-167.029 -182.192 58495.1)
(-211.336 -181.763 56517.7)
(-198.305 -166.081 54175.1)
(-128.29 -161.029 52565.2)
(-38.5976 -176.737 51734.2)
(81.7182 -184.974 51134.3)
(222.154 -147.028 49507.8)
(332.384 -101.696 47883.4)
(382.124 -76.5699 45862.1)
(379.618 -49.5134 42340.2)
(340.842 -16.2387 37699)
(266.886 -5.95922 34454.3)
(178.198 -50.5868 35517.9)
(110.888 -128.833 40321.1)
(67.293 -193.335 48235.1)
(77.9902 -223.009 53807.2)
(72.3251 -168.693 50809.1)
(133.785 -48.6454 39072.7)
(222.45 197.235 26608.9)
(288.779 232.391 28333)
(48.3624 179.833 38989.2)
(-153.66 182.136 47158.8)
(-277.199 194.007 47784)
(-320.641 168.891 44024.4)
(-297.829 179.53 40663.9)
(-183.316 179.64 38007)
(-31.4349 191.715 35515.9)
(90.8838 163.878 32798.9)
(24.3023 108.829 33070)
(-115.612 -14.7401 37031.9)
(-151.026 -92.5363 43703.8)
(-143.77 -130.721 50393.8)
(-119.691 -129.577 55266.9)
(-92.3779 -131.257 58228.1)
(-74.8489 -123.419 59936.6)
(-64.3566 -127.222 60750)
(-65.8954 -126.923 60792.7)
(-79.5809 -140.333 59999.2)
(-107.349 -148.705 58631.8)
(-136.993 -162.047 58919.4)
(-177.349 -147.572 60050.2)
(-219.842 -117.37 59506.9)
(-239.274 -57.9515 58110.5)
(-222.443 -1.2772 56725.9)
(-193.038 50.3471 55609.8)
(-162.887 81.6428 54750.6)
(-109.647 102.506 54041.3)
(-4.21141 96.8648 52983)
(128.426 94.646 50870)
(241.462 68.5068 46147)
(291.591 66.7661 39195.2)
(265.608 34.5216 34372.8)
(207.205 -53.4081 35879.6)
(158.022 -151.387 39894.6)
(112.701 -213.56 45236.7)
(109.076 -235.443 50100.8)
(108.224 -179.84 48790.9)
(145.205 -17.4985 36720.4)
(223.852 293.018 25005.4)
(364.031 252.063 26551.7)
(139.102 249.924 30332.7)
(-112.656 252.13 34548.5)
(-314.768 264.133 39968.1)
(-416.485 259.826 43013.9)
(-427.754 250.892 43014.8)
(-348.057 234.942 41393.1)
(-196.896 217.104 38353.7)
(-21.7948 183.955 34644.1)
(-0.910806 103.53 33799)
(-104.392 -44.9958 38675.1)
(-145.825 -153.238 46663.6)
(-126.706 -166.989 52553.3)
(-99.8078 -159.612 56270.3)
(-69.05 -146.221 58502.5)
(-51.7361 -129.966 59757.5)
(-37.9097 -117.222 60291.9)
(-42.6109 -103.102 60194)
(-54.2122 -96.7253 59433.5)
(-92.4901 -89.8006 58074.2)
(-125.004 -85.8256 58425.6)
(-170.579 -63.9084 59986.2)
(-220.156 -42.308 60309.3)
(-262.175 -4.85825 59851.3)
(-273.243 31.4637 59064.6)
(-263.033 66.8004 58156.4)
(-225.498 94.809 57204.9)
(-179.814 125.59 56148)
(-118.97 124.844 54895)
(-54.4059 100.693 53044.3)
(78.8486 59.5793 49315.1)
(203.407 58.4099 40378.5)
(237.652 16.1875 34341)
(218.91 -116.195 36944.8)
(202.322 -238.381 41302.1)
(180.916 -311.486 44149.2)
(175.194 -308.608 43735.4)
(171.282 -184.218 37218.7)
(200.982 91.716 28684.7)
(244.316 370.951 25667.2)
(438.74 279.473 27431.8)
(283.491 315.714 29808.7)
(58.503 304.031 30064.9)
(-185.06 288.365 30476.9)
(-385.258 262.585 33153.5)
(-480.214 244.882 36260.7)
(-468.986 219.714 37963.1)
(-372.304 195.102 37832.5)
(-199.684 169.998 35677.6)
(-97.0929 62.4149 34627.6)
(-137.068 -140.65 41886)
(-152.163 -209.34 49256.3)
(-118.566 -210.576 53900.8)
(-89.2198 -193.095 56652)
(-61.6351 -175.51 58250.9)
(-45.3635 -151.718 59089.2)
(-37.3927 -134.978 59346.7)
(-42.2304 -114.246 59089.4)
(-57.1117 -101.005 58274.5)
(-90.9705 -84.6229 56802.7)
(-120.747 -76.1989 57195.7)
(-147.313 -44.9922 58869.4)
(-179.353 -18.3463 59607.6)
(-209.562 24.6195 59654.7)
(-230.3 64.5707 59291)
(-239.996 103.009 58645.5)
(-238.177 126.867 57792.1)
(-217.292 135.747 56707.1)
(-178.24 128.511 55297.7)
(-124.995 99.5793 53347.4)
(-64.5729 69.7722 50458.7)
(102.071 41.5996 41643.3)
(191.555 -51.0761 33403.8)
(181.518 -183.09 34920.6)
(187.753 -297.598 36152.3)
(176.607 -328.193 34952.5)
(184.297 -249.171 31344.4)
(199.985 -33.9595 28041.9)
(251.926 238.036 28135.9)
(263.396 427.399 26824.4)
(511.497 301.847 28603.9)
(415.083 348.585 31565.4)
(234.393 308.503 31759.3)
(25.3795 274.826 30931.9)
(-171.387 220.378 29896.2)
(-337.605 174.456 30796.5)
(-388.451 119.482 32362)
(-345.03 79.6951 33030.9)
(-243.193 39.1862 32421.7)
(-150.831 -121.329 37173)
(-144.959 -250.594 45589.9)
(-126.833 -265.682 51112)
(-85.0361 -247.165 54494.7)
(-53.8378 -217.369 56381.5)
(-24.4127 -184.93 57364.4)
(-8.27872 -151.375 57735.9)
(1.33284 -119.321 57636.6)
(-4.7124 -86.2531 57112.6)
(-16.161 -55.6514 56165)
(-64.8353 -26.9969 54553.2)
(-96.6473 -15.3538 55084)
(-127.616 10.3751 56797)
(-159.958 28.9898 57862.5)
(-192.163 56.7999 58255.2)
(-216.622 80.595 58241.6)
(-234.344 106.394 57889.5)
(-240.281 120.259 57273.7)
(-237.862 129.677 56346.6)
(-225.716 114.481 55092.2)
(-198.594 89.2233 53318.6)
(-163.547 32.8984 50767.2)
(-101.659 -20.5429 45411.3)
(84.434 -97.8884 31481.7)
(101.196 -182.347 30437.8)
(98.055 -248.839 30102.4)
(124.791 -210.579 28741.3)
(159.037 -67.6928 27563.7)
(203.266 137.928 28556.4)
(272.523 355.362 29703.8)
(278.089 478.463 27832.5)
(580.872 313.626 29548)
(525.464 351.508 32935.3)
(376.66 284.146 33327.5)
(185.878 223.047 32309.3)
(15.9034 134 30461.2)
(-149.092 58.0598 29566.3)
(-227.946 -40.7655 30224.2)
(-224.334 -95.1903 30722.5)
(-170.632 -185.521 35202)
(-127.318 -287.229 42151.9)
(-114.866 -332.269 48194.8)
(-87.0001 -315.354 52134)
(-49.8829 -283.061 54342.4)
(-19.2476 -242.633 55412.8)
(3.98347 -205.716 55758.1)
(17.6888 -164.436 55597.5)
(24.2668 -128.451 55009.2)
(18.8039 -89.987 53976.1)
(7.68575 -43.4933 51977.6)
(-45.6478 -5.63658 50562.6)
(-90.1183 -3.73066 51846.7)
(-111.775 27.8006 53671.7)