/*--------------------------------*- C++ -*----------------------------------*\
  =========                 |
  \\      /  F ield         | OpenFOAM: The Open Source CFD Toolbox
   \\    /   O peration     | Website:  https://openfoam.org
    \\  /    A nd           | Version:  11
     \\/     M anipulation  |
\*---------------------------------------------------------------------------*/
FoamFile
{
    format      ascii;
    class       volScalarField;
    location    "200";
    object      p;
}
// * * * * * * * * * * * * * * * * * * * * * * * * * * * * * * * * * * * * * //

dimensions      [0 2 -2 0 0 0 0];

internalField   nonuniform List<scalar> 
128000
(
-416074
-419460
-582527
-564788
-765536
-784043
-880286
-851053
-773631
-695557
-597242
-599302
-692403
-720486
-734611
-719501
-721312
-748354
-758430
-762832
-727434
-767801
-710148
-651123
-582025
-555566
-492210
-362101
-284553
-357392
-480875
-633920
-731797
-754616
-603064
-546146
-264563
-244041
-38629.1
2928.18
-411933
-297031
-428518
-423433
-598525
-712726
-858489
-979291
-921549
-838595
-721381
-634380
-749740
-756626
-786493
-788759
-768558
-781743
-777115
-786577
-733548
-786749
-726890
-707189
-636214
-605753
-490466
-425875
-331879
-551581
-705027
-886920
-896700
-712955
-467421
-298252
-33907.8
-21713.5
151766
43050.2
-576406
-422634
-474092
-442417
-555218
-638785
-791610
-904724
-1.00685e+06
-905756
-840449
-823693
-853709
-891096
-871742
-835674
-811996
-795693
-765877
-767070
-729318
-770131
-749915
-759264
-712244
-710440
-646427
-606105
-572648
-754429
-854541
-1.02058e+06
-797834
-609813
-370877
-232520
-52787.6
-80137.1
5918.74
-176837
-554136
-418920
-434771
-407000
-483760
-601799
-709662
-940357
-977393
-1.05933e+06
-935672
-948785
-1.03123e+06
-992753
-984592
-982579
-866191
-842950
-806908
-802120
-773056
-818395
-816110
-865078
-892076
-893187
-811367
-828766
-788873
-917868
-1.09431e+06
-977131
-805166
-495319
-291820
-115643
17236.4
-10248.7
28952.8
-124672
-749817
-589433
-548398
-480517
-479058
-552250
-643611
-776684
-970354
-949363
-942937
-976402
-1.04201e+06
-1.10629e+06
-1.08559e+06
-940858
-920172
-846590
-819231
-803563
-810862
-860742
-893059
-963142
-948013
-1.04466e+06
-1.05423e+06
-972630
-912859
-998485
-956702
-989699
-591379
-402419
-212967
-102662
-59583.6
-150063
-159041
-382283
-760244
-694109
-621839
-590124
-547061
-584926
-642137
-749569
-877581
-949742
-923237
-866408
-987888
-1.01442e+06
-1.01779e+06
-1.00439e+06
-878384
-801671
-816524
-814075
-824378
-854923
-859887
-958136
-1.06139e+06
-1.05204e+06
-980533
-914071
-808679
-889902
-889070
-752758
-500402
-349596
-211513
-148577
-170006
-229034
-273391
-417636
-856080
-833309
-771738
-689880
-627404
-632512
-642203
-716647
-800179
-932156
-885828
-972566
-876937
-997699
-967628
-908652
-844267
-796470
-811208
-807322
-755659
-775029
-823592
-866913
-893725
-882258
-881160
-693391
-853513
-797098
-851066
-630939
-460050
-338134
-266096
-264772
-323037
-390423
-463670
-584458
-821150
-945458
-872560
-916025
-761035
-735715
-708804
-727343
-775236
-836758
-926039
-872958
-1.04388e+06
-1.00234e+06
-997229
-955488
-885592
-811584
-839267
-811376
-746443
-749025
-786207
-850339
-880709
-881741
-809990
-878199
-708742
-803674
-661423
-535862
-426735
-371396
-365557
-402207
-489438
-517432
-612745
-626629
-750673
-879370
-958864
-930044
-923388
-855052
-781068
-766672
-756969
-800026
-821413
-888860
-894953
-979949
-976460
-934294
-878381
-831149
-819976
-791471
-725692
-723499
-776776
-802770
-851043
-826410
-844947
-686057
-734811
-640306
-595038
-498393
-459527
-449510
-487775
-549646
-591464
-608051
-714422
-648058
-677713
-814279
-869133
-1.0042e+06
-914566
-908545
-905971
-819167
-793461
-766544
-795089
-785691
-857364
-858208
-896130
-865596
-837898
-780726
-775396
-758416
-720889
-715689
-749259
-774144
-785650
-778219
-704783
-700874
-616345
-597505
-534729
-499549
-494634
-527892
-568342
-605971
-620460
-690213
-728060
-618153
-591960
-694402
-809820
-892203
-895630
-891019
-849686
-899574
-805451
-784755
-755184
-764396
-764182
-793696
-794203
-786518
-763572
-743551
-727662
-722853
-698131
-698935
-701641
-697291
-707484
-666520
-668320
-595538
-599577
-552665
-546649
-525532
-552754
-557494
-609324
-614716
-651576
-706823
-694232
-566089
-600375
-653670
-819768
-934674
-956842
-835258
-956664
-850651
-872688
-773566
-764412
-728482
-748456
-739877
-759102
-747132
-746509
-735115
-735469
-732555
-719188
-714670
-707663
-698986
-680406
-661142
-625513
-607189
-579421
-563785
-551440
-551631
-550825
-596591
-589267
-632506
-658061
-671170
-629644
-476118
-700726
-743168
-844984
-995847
-1.0202e+06
-958947
-868361
-1.02124e+06
-881251
-837871
-757911
-735850
-715425
-717703
-714764
-711773
-706247
-700747
-692437
-685780
-669591
-658753
-646625
-627905
-626733
-603277
-612595
-591790
-613877
-602640
-617456
-598908
-601278
-611833
-633692
-674335
-654220
-600748
-516426
-388230
-709187
-756668
-873954
-957874
-1.07878e+06
-983176
-977386
-978680
-958374
-839094
-790507
-731991
-729995
-713510
-725967
-718611
-726554
-723359
-724648
-720280
-711051
-700589
-684774
-666459
-652442
-635488
-631303
-625834
-640623
-631117
-642079
-594499
-628878
-587531
-665726
-673845
-638673
-550713
-422474
-344780
-722080
-770186
-852312
-952765
-1.04394e+06
-983083
-948928
-972146
-956716
-868533
-785809
-736942
-713622
-700420
-698269
-690196
-686883
-676484
-666695
-651188
-636130
-617320
-604701
-589374
-593949
-595169
-634917
-667827
-733748
-755995
-764611
-704906
-683789
-657996
-715070
-692694
-646537
-529495
-451073
-396405
-708430
-774902
-815150
-946324
-905701
-976374
-891819
-932482
-922526
-843598
-788886
-735414
-730972
-713323
-726112
-719903
-729381
-724051
-726275
-716929
-710099
-692622
-678440
-657291
-651513
-644510
-672209
-700104
-768502
-788877
-790305
-726594
-702526
-643137
-701092
-646690
-629721
-521985
-481565
-429151
-708996
-747682
-798794
-826984
-901505
-835246
-839181
-863605
-866106
-809801
-759781
-719907
-710954
-691403
-692648
-677679
-674536
-655339
-642436
-617038
-598299
-570264
-551687
-531877
-541739
-569306
-660550
-791782
-975466
-1.0822e+06
-1.08153e+06
-921931
-805939
-714091
-709460
-652236
-629368
-525867
-520060
-471401
-744756
-767748
-789018
-825219
-837823
-797710
-796517
-798318
-824496
-763321
-755440
-722686
-731813
-715396
-729877
-720783
-732208
-723778
-727963
-714033
-707879
-683285
-666473
-636369
-628117
-624692
-683837
-788803
-1.00456e+06
-1.13652e+06
-1.17726e+06
-1.06256e+06
-860730
-694896
-663152
-581848
-599439
-505598
-643776
-566685
-744435
-745792
-763172
-780171
-824302
-810354
-815907
-826122
-801413
-745363
-731984
-707547
-707316
-684342
-685974
-664689
-659720
-633414
-615444
-579819
-551108
-502315
-459990
-408706
-387617
-404161
-552786
-934188
-1.47989e+06
-1.84578e+06
-1.78245e+06
-1.33169e+06
-996721
-740735
-655773
-572238
-588313
-539960
-683812
-551169
-751260
-758809
-761335
-785818
-805229
-804854
-802531
-773905
-784020
-736975
-741879
-721633
-729396
-712595
-724816
-714904
-727472
-718429
-724780
-709706
-704861
-676083
-649907
-600008
-556658
-509868
-540812
-797056
-1.29228e+06
-1.59507e+06
-1.72128e+06
-1.374e+06
-901483
-577542
-502886
-467639
-537396
-495224
-553576
-500692
-723737
-715984
-738378
-771731
-837492
-828369
-745279
-723266
-706888
-692382
-710239
-691075
-694013
-670311
-671607
-649561
-644426
-617005
-597571
-556294
-517245
-442484
-356792
-223530
-88690.3
44717.2
-136161
-837528
-1.75842e+06
-2.18618e+06
-1.83458e+06
-1.24035e+06
-786309
-480034
-420144
-454147
-545101
-548625
-678072
-574712
-754816
-770762
-767999
-817223
-878376
-854745
-804248
-752071
-757115
-722361
-730946
-709079
-710996
-695507
-705461
-698531
-712356
-707361
-717555
-707131
-708467
-685771
-671472
-633043
-615506
-599247
-688583
-915149
-1.3243e+06
-1.54114e+06
-1.62307e+06
-1.40385e+06
-1.02802e+06
-681633
-596521
-538181
-625011
-573775
-631420
-583318
-706215
-723069
-753661
-817409
-909899
-859148
-839540
-801015
-800237
-751220
-729596
-687990
-677944
-650349
-649496
-632100
-631333
-613671
-605279
-579823
-562538
-525537
-499600
-464146
-462946
-496615
-655393
-1.0359e+06
-1.60595e+06
-1.97285e+06
-1.65926e+06
-1.34237e+06
-1.20042e+06
-911597
-798744
-708285
-715452
-651579
-693884
-656922
-637455
-693167
-750522
-871043
-962967
-984510
-887727
-870574
-836488
-786412
-735215
-697689
-677004
-662669
-667507
-668296
-683846
-687658
-702985
-703161
-713418
-706855
-712381
-703249
-720161
-735031
-810388
-902334
-1.08306e+06
-1.1815e+06
-1.23282e+06
-1.2191e+06
-1.07572e+06
-918762
-908955
-838622
-828554
-706019
-657382
-619176
-573492
-620506
-706326
-899214
-951516
-1.06633e+06
-908854
-883555
-869396
-779101
-729125
-659596
-640236
-613558
-614182
-607619
-613612
-610953
-614975
-609102
-611153
-603792
-610230
-614866
-647688
-699707
-803514
-958013
-1.14238e+06
-1.28694e+06
-1.24626e+06
-1.14664e+06
-1.07682e+06
-1.00455e+06
-1.02463e+06
-970913
-941149
-819371
-731007
-669411
-525206
-571912
-695189
-883230
-1.0821e+06
-1.05815e+06
-905240
-884519
-838977
-780762
-682176
-646883
-612178
-609567
-612934
-625587
-643971
-659423
-678478
-691626
-705743
-714097
-727727
-732580
-754195
-767927
-814422
-853794
-927508
-967055
-991974
-976053
-978457
-942723
-1.02019e+06
-1.03778e+06
-978137
-834821
-717541
-642597
-457490
-458460
-625103
-816297
-1.05099e+06
-978830
-884816
-784186
-849059
-685848
-659846
-584911
-575378
-559290
-568074
-576166
-589475
-602690
-613651
-625531
-637505
-648362
-665391
-681795
-712298
-747888
-804507
-872898
-949186
-1.01638e+06
-1.0325e+06
-1.02001e+06
-1.00897e+06
-1.00345e+06
-1.04534e+06
-1.08598e+06
-1.0516e+06
-932321
-773843
-681258
-310360
-354587
-582440
-822518
-985845
-920957
-712888
-865513
-690061
-685365
-574925
-563128
-532798
-548276
-557792
-584096
-605511
-632252
-650738
-679701
-688186
-711541
-726211
-737594
-758495
-764433
-794537
-807217
-850892
-864731
-916228
-894208
-968300
-919649
-992886
-1.03783e+06
-1.0139e+06
-921053
-843417
-690646
-256998
-334497
-588606
-794827
-923231
-825655
-856596
-709467
-726929
-589284
-555538
-510862
-512488
-516942
-535217
-557525
-573024
-600093
-610061
-637859
-646095
-670271
-689831
-710498
-735138
-759708
-787976
-817879
-853122
-892737
-913342
-969190
-934900
-1.04452e+06
-979101
-1.04263e+06
-1.05814e+06
-1.00338e+06
-996408
-828152
-355980
-556387
-773361
-946576
-1.06224e+06
-918758
-833327
-819178
-632159
-571053
-497875
-497551
-486736
-520006
-536237
-571157
-594547
-628345
-640572
-684829
-672625
-711408
-727955
-745643
-771607
-772131
-796151
-793047
-812841
-819923
-857032
-868563
-952858
-942228
-1.03679e+06
-1.03189e+06
-1.02913e+06
-998455
-1.00064e+06
-883876
-481857
-727633
-901953
-1.12496e+06
-998433
-910447
-845032
-647849
-567803
-495652
-484155
-476254
-506595
-522389
-549770
-579905
-591736
-626172
-627596
-674507
-659860
-674692
-705478
-733974
-768605
-794832
-808695
-821677
-835057
-835882
-853465
-877968
-906368
-996590
-1.04163e+06
-1.06959e+06
-1.13147e+06
-1.06617e+06
-1.07458e+06
-951267
-648679
-913031
-1.03108e+06
-986151
-1.00045e+06
-750409
-632942
-527596
-476570
-469453
-465459
-504813
-498390
-552165
-568030
-598698
-619998
-642025
-668279
-716849
-705113
-702545
-748443
-764443
-812397
-820162
-856244
-835892
-838123
-836287
-832888
-820584
-831990
-859402
-933603
-1.02484e+06
-1.03975e+06
-1.06714e+06
-1.09181e+06
-997055
-736789
-892834
-787050
-789385
-584183
-492520
-453795
-410240
-434942
-460853
-507210
-492956
-566578
-571746
-591453
-607728
-615819
-641636
-654252
-724540
-696279
-700128
-746757
-768692
-821219
-852862
-870192
-893721
-896043
-854273
-876203
-839015
-808787
-801847
-831585
-863080
-992319
-968587
-1.06448e+06
-1.01884e+06
-746511
-697110
-595874
-491510
-406313
-350427
-341916
-364657
-433310
-502783
-492654
-559532
-523424
-568204
-577860
-596024
-609683
-612039
-644763
-681147
-731069
-740684
-782471
-809866
-852454
-864346
-902188
-868750
-888160
-896873
-891338
-863117
-790705
-734819
-727611
-732924
-788165
-858440
-917155
-996718
-591506
-450817
-362530
-288985
-214062
-214547
-271534
-353410
-463565
-516466
-534866
-515533
-580834
-610382
-626696
-627357
-604360
-617607
-653705
-664676
-735192
-765163
-784117
-819785
-884693
-952068
-963623
-944250
-915226
-876039
-921000
-930158
-837074
-733514
-683485
-649309
-682871
-725337
-768852
-875798
-523716
-280361
-228713
-117751
-114980
-163268
-277747
-390645
-538153
-521527
-554520
-583216
-609420
-619989
-600748
-596482
-603722
-615261
-635628
-643386
-713314
-756293
-787191
-831760
-883263
-919258
-1.00659e+06
-999026
-977326
-923378
-948794
-937977
-906248
-752013
-663427
-595254
-571474
-650218
-660032
-833948
-250565
-38008.8
-63327.2
-4770.17
-88959.2
-195692
-338868
-486495
-540029
-573768
-580301
-565309
-558411
-557667
-560571
-580530
-580641
-625857
-626874
-649672
-678134
-729320
-752729
-798774
-842471
-906658
-934835
-948622
-963042
-913707
-968709
-976327
-968434
-840118
-710654
-620741
-519488
-551387
-519299
-643755
-239805
-32008.7
-95539.6
-36052.6
-173432
-247655
-405217
-489794
-598533
-601123
-601257
-548621
-508441
-501838
-505660
-530576
-546158
-594916
-600643
-628607
-654432
-701337
-723742
-757097
-778645
-809265
-836232
-855195
-848980
-859034
-905674
-958358
-962738
-880662
-754099
-677709
-558828
-587040
-524365
-671026
-36480.9
125660
-21970.3
-9605.73
-198719
-310012
-475329
-604043
-642447
-612024
-581777
-465173
-386014
-425029
-446229
-508536
-546540
-664833
-644094
-635413
-662843
-689718
-703545
-730260
-736075
-761375
-763433
-763869
-730051
-755093
-864830
-908938
-987245
-951834
-820796
-745260
-553360
-562872
-417692
-505871
-17372.5
1712.38
-203635
-164400
-404597
-424353
-563054
-568956
-557669
-508638
-442466
-359541
-336123
-402283
-434032
-492170
-547060
-642969
-614152
-625781
-647188
-676838
-691936
-705153
-691329
-712050
-709957
-727865
-661019
-671404
-741181
-805095
-860719
-930765
-855508
-876176
-688863
-706952
-559307
-532849
-1.38336e+06
-1.39101e+06
-1.49689e+06
-1.51623e+06
-1.65195e+06
-1.67569e+06
-1.70088e+06
-1.60587e+06
-1.43043e+06
-1.23351e+06
-1.02415e+06
-1.0507e+06
-1.3558e+06
-1.50986e+06
-1.60744e+06
-1.64249e+06
-1.66175e+06
-1.65574e+06
-1.56985e+06
-1.43429e+06
-1.36553e+06
-1.50115e+06
-1.56942e+06
-1.53572e+06
-1.4315e+06
-1.30645e+06
-1.10284e+06
-761104
-452032
-729718
-1.04429e+06
-1.34947e+06
-1.56455e+06
-1.65009e+06
-1.56855e+06
-1.48929e+06
-1.27419e+06
-1.20662e+06
-1.05575e+06
-1.01115e+06
-1.38235e+06
-1.32281e+06
-1.40141e+06
-1.43054e+06
-1.57023e+06
-1.67634e+06
-1.78036e+06
-1.81448e+06
-1.66259e+06
-1.42966e+06
-1.11746e+06
-1.03544e+06
-1.32471e+06
-1.48884e+06
-1.54643e+06
-1.51983e+06
-1.46926e+06
-1.4296e+06
-1.3141e+06
-1.13206e+06
-1.03235e+06
-1.2592e+06
-1.32457e+06
-1.364e+06
-1.32976e+06
-1.25539e+06
-1.02044e+06
-669859
-484259
-982767
-1.38347e+06
-1.71446e+06
-1.82821e+06
-1.71961e+06
-1.51571e+06
-1.33746e+06
-1.11464e+06
-1.05084e+06
-934020
-976835
-1.48374e+06
-1.39359e+06
-1.42885e+06
-1.44223e+06
-1.55572e+06
-1.66459e+06
-1.80157e+06
-1.88088e+06
-1.84241e+06
-1.59795e+06
-1.32073e+06
-1.28098e+06
-1.44998e+06
-1.57159e+06
-1.50432e+06
-1.30887e+06
-1.14155e+06
-1.04091e+06
-975726
-919786
-823203
-909024
-997942
-1.13585e+06
-1.24787e+06
-1.32018e+06
-1.18108e+06
-896403
-807173
-1.27153e+06
-1.66525e+06
-1.96711e+06
-1.88638e+06
-1.70927e+06
-1.47495e+06
-1.29208e+06
-1.10906e+06
-1.07039e+06
-1.00309e+06
-1.09914e+06
-1.49496e+06
-1.41787e+06
-1.43268e+06
-1.44489e+06
-1.53857e+06
-1.67147e+06
-1.7971e+06
-1.96713e+06
-1.93952e+06
-1.80659e+06
-1.56236e+06
-1.60535e+06
-1.78754e+06
-1.74059e+06
-1.60902e+06
-1.3878e+06
-1.11463e+06
-946688
-834325
-735606
-616698
-731172
-897112
-1.15507e+06
-1.41426e+06
-1.59886e+06
-1.60424e+06
-1.47149e+06
-1.31485e+06
-1.56633e+06
-1.9596e+06
-2.06804e+06
-1.93447e+06
-1.6663e+06
-1.43913e+06
-1.23395e+06
-1.08047e+06
-1.048e+06
-1.00843e+06
-1.08826e+06
-1.62116e+06
-1.54829e+06
-1.53941e+06
-1.5297e+06
-1.57643e+06
-1.68202e+06
-1.79742e+06
-1.91323e+06
-1.98597e+06
-1.76586e+06
-1.6347e+06
-1.69403e+06
-1.83148e+06
-1.87279e+06
-1.72772e+06
-1.39188e+06
-1.24829e+06
-1.05462e+06
-929172
-837427
-831911
-908554
-1.06605e+06
-1.33273e+06
-1.53974e+06
-1.898e+06
-2.0349e+06
-1.85576e+06
-1.65244e+06
-1.72615e+06
-1.90738e+06
-2.05996e+06
-1.8146e+06
-1.62603e+06
-1.41525e+06
-1.25472e+06
-1.15793e+06
-1.16097e+06
-1.141e+06
-1.24515e+06
-1.63404e+06
-1.64078e+06
-1.63343e+06
-1.64817e+06
-1.66937e+06
-1.74989e+06
-1.84274e+06
-1.94081e+06
-1.9936e+06
-1.8995e+06
-1.60531e+06
-1.52919e+06
-1.64128e+06
-1.65628e+06
-1.5752e+06
-1.43002e+06
-1.21425e+06
-1.08112e+06
-1.08901e+06
-1.08813e+06
-1.07926e+06
-1.08244e+06
-1.14768e+06
-1.38106e+06
-1.6611e+06
-1.82759e+06
-1.86259e+06
-1.74865e+06
-1.58862e+06
-1.6589e+06
-1.91895e+06
-1.93965e+06
-1.77477e+06
-1.62113e+06
-1.45016e+06
-1.32683e+06
-1.26951e+06
-1.24944e+06
-1.23152e+06
-1.27583e+06
-1.6544e+06
-1.73304e+06
-1.75906e+06
-1.7581e+06
-1.76689e+06
-1.82518e+06
-1.88883e+06
-1.96819e+06
-2.00336e+06
-1.97668e+06
-1.6992e+06
-1.49183e+06
-1.40691e+06
-1.46113e+06
-1.39074e+06
-1.26784e+06
-1.13253e+06
-1.05444e+06
-1.10655e+06
-1.13171e+06
-1.04192e+06
-1.00941e+06
-1.08919e+06
-1.2195e+06
-1.36382e+06
-1.45969e+06
-1.49971e+06
-1.35754e+06
-1.4572e+06
-1.62765e+06
-1.90414e+06
-1.87658e+06
-1.77657e+06
-1.65014e+06
-1.52424e+06
-1.43978e+06
-1.39951e+06
-1.36743e+06
-1.34854e+06
-1.35034e+06
-1.55536e+06
-1.75437e+06
-1.8196e+06
-1.91231e+06
-1.87067e+06
-1.90798e+06
-1.95113e+06
-2.0021e+06
-2.02675e+06
-1.99004e+06
-1.86655e+06
-1.59654e+06
-1.48457e+06
-1.32636e+06
-1.26156e+06
-1.16737e+06
-1.04964e+06
-965810
-1.04017e+06
-1.10375e+06
-1.01802e+06
-938229
-967988
-1.0704e+06
-1.16372e+06
-1.22072e+06
-1.21715e+06
-1.30269e+06
-1.40372e+06
-1.74273e+06
-1.85717e+06
-1.85912e+06
-1.78835e+06
-1.69478e+06
-1.60232e+06
-1.53165e+06
-1.49113e+06
-1.41463e+06
-1.39987e+06
-1.32249e+06
-1.38986e+06
-1.59539e+06
-1.76266e+06
-1.84938e+06
-1.90757e+06
-1.93892e+06
-1.96669e+06
-2.00901e+06
-2.01505e+06
-1.98882e+06
-1.86172e+06
-1.67946e+06
-1.42628e+06
-1.21409e+06
-1.05816e+06
-933638
-845788
-819221
-916461
-1.01454e+06
-953539
-837659
-793506
-832917
-928564
-1.00637e+06
-1.14988e+06
-1.28189e+06
-1.56523e+06
-1.74539e+06
-1.86335e+06
-1.85779e+06
-1.80906e+06
-1.72197e+06
-1.6327e+06
-1.55218e+06
-1.45875e+06
-1.35469e+06
-1.37587e+06
-1.24371e+06
-1.21095e+06
-1.38181e+06
-1.53136e+06
-1.72012e+06
-1.69404e+06
-1.81855e+06
-1.92395e+06
-1.95575e+06
-1.97401e+06
-1.94245e+06
-1.86279e+06
-1.67954e+06
-1.47675e+06
-1.17899e+06
-902677
-673993
-555700
-567244
-748650
-930874
-898156
-756532
-660395
-691638
-801666
-971729
-1.17588e+06
-1.42894e+06
-1.61293e+06
-1.78121e+06
-1.84474e+06
-1.83879e+06
-1.77675e+06
-1.67394e+06
-1.54417e+06
-1.42308e+06
-1.28724e+06
-1.26279e+06
-1.26421e+06
-1.1054e+06
-1.03054e+06
-1.09015e+06
-1.29261e+06
-1.52393e+06
-1.58158e+06
-1.55016e+06
-1.64358e+06
-1.82234e+06
-1.83442e+06
-1.84825e+06
-1.78676e+06
-1.66907e+06
-1.47833e+06
-1.24008e+06
-937594
-655365
-465064
-495491
-674740
-843574
-812249
-699471
-641907
-694058
-846622
-1.04778e+06
-1.2917e+06
-1.47119e+06
-1.65969e+06
-1.76381e+06
-1.81629e+06
-1.77815e+06
-1.68717e+06
-1.50569e+06
-1.34986e+06
-1.2346e+06
-1.13475e+06
-1.10677e+06
-1.0798e+06
-917668
-1.14591e+06
-1.13564e+06
-1.32318e+06
-1.61221e+06
-1.66929e+06
-1.48217e+06
-1.46489e+06
-1.55966e+06
-1.65111e+06
-1.66e+06
-1.66377e+06
-1.58094e+06
-1.4666e+06
-1.27875e+06
-1.06111e+06
-814060
-640340
-625749
-725921
-829324
-808192
-730118
-734200
-821709
-972561
-1.167e+06
-1.34581e+06
-1.51502e+06
-1.64469e+06
-1.72627e+06
-1.73745e+06
-1.67022e+06
-1.51068e+06
-1.30622e+06
-1.19734e+06
-1.15115e+06
-987413
-847149
-806041
-674780
-1.42821e+06
-1.39893e+06
-1.50987e+06
-1.76701e+06
-1.79095e+06
-1.59101e+06
-1.38189e+06
-1.45335e+06
-1.40166e+06
-1.45267e+06
-1.46631e+06
-1.45401e+06
-1.38058e+06
-1.26867e+06
-1.11736e+06
-942312
-806755
-766425
-789057
-828447
-810663
-765909
-800452
-891964
-1.0423e+06
-1.19078e+06
-1.35664e+06
-1.48983e+06
-1.61786e+06
-1.67356e+06
-1.67236e+06
-1.55972e+06
-1.35461e+06
-1.15035e+06
-1.16465e+06
-1.18153e+06
-961075
-604752
-450245
-365581
-1.54837e+06
-1.53795e+06
-1.59399e+06
-1.71055e+06
-1.819e+06
-1.6002e+06
-1.42277e+06
-1.28648e+06
-1.18384e+06
-1.15663e+06
-1.23065e+06
-1.26705e+06
-1.27397e+06
-1.21614e+06
-1.14128e+06
-1.03074e+06
-945853
-903482
-902782
-913511
-899775
-873434
-913815
-996986
-1.1003e+06
-1.21292e+06
-1.33597e+06
-1.45029e+06
-1.55437e+06
-1.59721e+06
-1.58209e+06
-1.43394e+06
-1.22593e+06
-1.05017e+06
-1.12979e+06
-1.16233e+06
-966285
-573796
-327604
-261370
-1.6267e+06
-1.56585e+06
-1.50418e+06
-1.58482e+06
-1.65705e+06
-1.51736e+06
-1.35386e+06
-1.22064e+06
-1.02657e+06
-878518
-928914
-1.03979e+06
-1.11138e+06
-1.12018e+06
-1.09482e+06
-1.03965e+06
-984233
-945503
-928880
-918842
-900906
-876986
-912355
-968825
-1.05259e+06
-1.14544e+06
-1.26966e+06
-1.39066e+06
-1.52248e+06
-1.59345e+06
-1.58916e+06
-1.43689e+06
-1.20717e+06
-1.03612e+06
-1.07686e+06
-1.07094e+06
-936907
-660902
-527857
-475788
-1.64532e+06
-1.52939e+06
-1.30764e+06
-1.36446e+06
-1.36049e+06
-1.39234e+06
-1.24174e+06
-1.13356e+06
-908890
-655772
-660726
-803442
-949400
-1.01969e+06
-1.06056e+06
-1.05186e+06
-1.03957e+06
-1.01846e+06
-1.01238e+06
-1.00355e+06
-985670
-959646
-971078
-992799
-1.0341e+06
-1.08541e+06
-1.17354e+06
-1.27875e+06
-1.42751e+06
-1.537e+06
-1.56631e+06
-1.43158e+06
-1.22045e+06
-994891
-974687
-920684
-863405
-740986
-728985
-749344
-1.64224e+06
-1.46413e+06
-1.14578e+06
-1.09614e+06
-1.23314e+06
-1.17687e+06
-1.1218e+06
-1.02177e+06
-822539
-533823
-471961
-623344
-803554
-912308
-981493
-999651
-1.00376e+06
-985579
-971248
-947047
-919176
-880694
-864404
-853560
-868237
-905975
-1.0095e+06
-1.17928e+06
-1.44887e+06
-1.69258e+06
-1.77099e+06
-1.59283e+06
-1.32056e+06
-1.04536e+06
-941063
-860600
-810055
-755133
-859054
-966551
-1.61679e+06
-1.41715e+06
-1.03312e+06
-925782
-1.03264e+06
-1.08465e+06
-1.05055e+06
-940637
-802607
-556614
-507726
-610087
-773353
-881951
-971011
-1.00902e+06
-1.03781e+06
-1.03788e+06
-1.03912e+06
-1.02171e+06
-992655
-940522
-896744
-836306
-783813
-741959
-783974
-955522
-1.35859e+06
-1.72316e+06
-1.85572e+06
-1.7109e+06
-1.38908e+06
-1.06984e+06
-929875
-800379
-758376
-687404
-940622
-1.1984e+06
-1.48331e+06
-1.28726e+06
-938639
-766495
-894319
-1.07573e+06
-1.09559e+06
-1.01046e+06
-898458
-731731
-671398
-686018
-774129
-851082
-926443
-960442
-983732
-974361
-956977
-920426
-877574
-796118
-699409
-576053
-457119
-375477
-461286
-906442
-1.68083e+06
-2.22653e+06
-2.25372e+06
-1.83767e+06
-1.42477e+06
-1.10121e+06
-968181
-844256
-736703
-463463
-865116
-1.1787e+06
-1.34552e+06
-1.1198e+06
-855808
-642056
-812596
-1.06316e+06
-1.09146e+06
-1.03865e+06
-983685
-888691
-819409
-775015
-813917
-870077
-946556
-990379
-1.02961e+06
-1.03591e+06
-1.03801e+06
-1.01442e+06
-976989
-899067
-794640
-626361
-403965
-153446
-123927
-649075
-1.45229e+06
-1.87293e+06
-1.99162e+06
-1.74437e+06
-1.33532e+06
-1.01216e+06
-886992
-760433
-682091
-366311
-609584
-1.00252e+06
-1.30994e+06
-1.01888e+06
-797617
-586666
-839083
-1.0444e+06
-978196
-935636
-887688
-817748
-761765
-730343
-776325
-830785
-899352
-933305
-958804
-949076
-928059
-891051
-843661
-714095
-520347
-204967
231623
636783
301599
-750784
-1.71156e+06
-2.14084e+06
-1.95594e+06
-1.53717e+06
-1.16331e+06
-875615
-757891
-678368
-701766
-621675
-822769
-1.05497e+06
-1.46712e+06
-1.22753e+06
-920314
-758355
-933023
-1.06509e+06
-1.01095e+06
-907288
-801539
-687015
-650625
-661309
-745686
-825351
-907575
-954791
-994536
-1.00302e+06
-1.00799e+06
-990592
-970023
-904771
-809521
-650388
-446775
-222125
-226276
-667023
-1.37146e+06
-1.81644e+06
-1.92497e+06
-1.6421e+06
-1.23253e+06
-877654
-735511
-647435
-780059
-788628
-939597
-1.14165e+06
-1.52963e+06
-1.29517e+06
-1.02141e+06
-941181
-1.10168e+06
-1.1332e+06
-1.08064e+06
-963727
-785047
-616863
-607027
-664786
-768710
-844173
-911863
-941922
-961916
-953908
-943726
-924794
-905446
-844547
-775255
-684179
-605723
-561263
-661857
-1.06204e+06
-1.7826e+06
-2.30008e+06
-2.05808e+06
-1.66108e+06
-1.37489e+06
-1.01819e+06
-839759
-730626
-832093
-933309
-1.08464e+06
-1.2863e+06
-1.47798e+06
-1.31832e+06
-1.13947e+06
-1.19634e+06
-1.35816e+06
-1.3913e+06
-1.21125e+06
-1.06311e+06
-840834
-680457
-683926
-769236
-867627
-938346
-991351
-1.01494e+06
-1.03142e+06
-1.03191e+06
-1.03946e+06
-1.04024e+06
-1.0433e+06
-1.02384e+06
-1.01009e+06
-984384
-978631
-985281
-1.0699e+06
-1.23377e+06
-1.55136e+06
-1.81892e+06
-1.88627e+06
-1.75643e+06
-1.41461e+06
-1.05922e+06
-970345
-903757
-927394
-947081
-1.07028e+06
-1.19633e+06
-1.35039e+06
-1.25688e+06
-1.22337e+06
-1.43476e+06
-1.53297e+06
-1.6591e+06
-1.35311e+06
-1.14079e+06
-928505
-784075
-824187
-896311
-979824
-1.01298e+06
-1.029e+06
-1.01965e+06
-1.01032e+06
-994788
-991981
-997466
-1.0052e+06
-998373
-1.01044e+06
-1.02998e+06
-1.08227e+06
-1.1651e+06
-1.30705e+06
-1.50884e+06
-1.75592e+06
-1.96271e+06
-1.94637e+06
-1.7594e+06
-1.44883e+06
-1.18188e+06
-1.18541e+06
-1.14634e+06
-1.13151e+06
-1.05523e+06
-1.04351e+06
-1.06702e+06
-1.17668e+06
-1.13306e+06
-1.2412e+06
-1.58135e+06
-1.94112e+06
-1.8388e+06
-1.46084e+06
-1.19806e+06
-1.00189e+06
-952529
-1.00252e+06
-1.08303e+06
-1.11173e+06
-1.11517e+06
-1.0965e+06
-1.07129e+06
-1.05012e+06
-1.03577e+06
-1.04141e+06
-1.06288e+06
-1.08547e+06
-1.09624e+06
-1.13032e+06
-1.17364e+06
-1.24456e+06
-1.3284e+06
-1.45072e+06
-1.58091e+06
-1.73073e+06
-1.82617e+06
-1.82662e+06
-1.68768e+06
-1.44739e+06
-1.25575e+06
-1.35469e+06
-1.438e+06
-1.2959e+06
-1.0377e+06
-901564
-846607
-938402
-848446
-1.04627e+06
-1.54679e+06
-2.01865e+06
-1.86143e+06
-1.49112e+06
-1.1761e+06
-1.12733e+06
-1.12667e+06
-1.21625e+06
-1.22675e+06
-1.22019e+06
-1.17074e+06
-1.11693e+06
-1.05745e+06
-1.00893e+06
-977663
-972199
-1.00003e+06
-1.03341e+06
-1.05437e+06
-1.10364e+06
-1.17217e+06
-1.27087e+06
-1.39265e+06
-1.54038e+06
-1.69677e+06
-1.84122e+06
-1.93739e+06
-1.92494e+06
-1.78921e+06
-1.52577e+06
-1.38502e+06
-1.49611e+06
-1.61309e+06
-1.43933e+06
-1.02319e+06
-768812
-715708
-529340
-435553
-734214
-1.38744e+06
-1.82945e+06
-1.74538e+06
-1.36155e+06
-1.25694e+06
-1.25275e+06
-1.36573e+06
-1.37059e+06
-1.36727e+06
-1.30073e+06
-1.22763e+06
-1.13672e+06
-1.05738e+06
-988483
-947470
-935350
-980654
-1.03837e+06
-1.06949e+06
-1.12705e+06
-1.20235e+06
-1.30746e+06
-1.42684e+06
-1.57336e+06
-1.70834e+06
-1.84193e+06
-1.91552e+06
-1.94144e+06
-1.83025e+06
-1.64926e+06
-1.44219e+06
-1.53066e+06
-1.6051e+06
-1.40756e+06
-1.00952e+06
-865839
-801817
-354239
-418331
-762197
-1.26493e+06
-1.63272e+06
-1.59481e+06
-1.46453e+06
-1.38313e+06
-1.5248e+06
-1.5256e+06
-1.52008e+06
-1.44591e+06
-1.35088e+06
-1.22961e+06
-1.10733e+06
-993072
-889419
-835919
-821736
-884943
-962189
-996939
-1.05644e+06
-1.13666e+06
-1.25289e+06
-1.39897e+06
-1.56323e+06
-1.72839e+06
-1.87786e+06
-1.99025e+06
-2.03083e+06
-2.0093e+06
-1.83014e+06
-1.65068e+06
-1.57791e+06
-1.61125e+06
-1.47067e+06
-1.24349e+06
-1.20981e+06
-1.09277e+06
-705854
-995263
-1.31833e+06
-1.62177e+06
-1.80902e+06
-1.70073e+06
-1.67499e+06
-1.73556e+06
-1.69089e+06
-1.67068e+06
-1.5863e+06
-1.48712e+06
-1.34162e+06
-1.20063e+06
-1.04514e+06
-909718
-807350
-771195
-772298
-877268
-950509
-994961
-1.02693e+06
-1.07857e+06
-1.17191e+06
-1.31482e+06
-1.4977e+06
-1.66913e+06
-1.83861e+06
-1.96574e+06
-2.05691e+06
-2.06431e+06
-2.0353e+06
-1.86635e+06
-1.7515e+06
-1.71501e+06
-1.61818e+06
-1.48608e+06
-1.43803e+06
-1.29833e+06
-1.03871e+06
-1.41031e+06
-1.72605e+06
-2.021e+06
-2.00621e+06
-1.94948e+06
-1.89734e+06
-1.80956e+06
-1.76919e+06
-1.69471e+06
-1.5971e+06
-1.45e+06
-1.29118e+06
-1.11015e+06
-940476
-817724
-737571
-724227
-738710
-906956
-949297
-973005
-983194
-1.00343e+06
-1.0631e+06
-1.181e+06
-1.35944e+06
-1.57149e+06
-1.77463e+06
-1.93682e+06
-2.06009e+06
-2.12167e+06
-2.12313e+06
-2.10111e+06
-2.01766e+06
-1.93837e+06
-1.88715e+06
-1.74222e+06
-1.67151e+06
-1.49426e+06
-1.35917e+06
-1.73975e+06
-1.99296e+06
-2.09349e+06
-2.08816e+06
-1.93363e+06
-1.84715e+06
-1.78838e+06
-1.73638e+06
-1.66122e+06
-1.52672e+06
-1.36771e+06
-1.15942e+06
-990748
-861101
-804600
-780676
-792135
-858850
-1.01514e+06
-1.0526e+06
-1.03281e+06
-1.00286e+06
-991751
-1.03066e+06
-1.09345e+06
-1.22405e+06
-1.39744e+06
-1.62721e+06
-1.83162e+06
-1.98922e+06
-2.07131e+06
-2.10261e+06
-2.09297e+06
-2.0831e+06
-2.07016e+06
-2.02395e+06
-1.92397e+06
-1.84255e+06
-1.66198e+06
-1.56398e+06
-1.82093e+06
-1.87188e+06
-1.91487e+06
-1.79581e+06
-1.73757e+06
-1.71406e+06
-1.68362e+06
-1.65566e+06
-1.56839e+06
-1.42133e+06
-1.1988e+06
-1.03635e+06
-916250
-872873
-862973
-874211
-912321
-965264
-1.10774e+06
-1.0934e+06
-1.04441e+06
-1.01837e+06
-1.00069e+06
-1.03409e+06
-1.08992e+06
-1.1704e+06
-1.2833e+06
-1.46379e+06
-1.67066e+06
-1.89628e+06
-2.00883e+06
-2.04742e+06
-2.04395e+06
-2.0315e+06
-2.00958e+06
-2.03992e+06
-1.959e+06
-1.92432e+06
-1.78563e+06
-1.63127e+06
-1.68904e+06
-1.67532e+06
-1.63427e+06
-1.58993e+06
-1.56538e+06
-1.56896e+06
-1.57074e+06
-1.55009e+06
-1.45188e+06
-1.22555e+06
-1.06007e+06
-959619
-935993
-913056
-917151
-942169
-966796
-1.01533e+06
-1.09342e+06
-1.12091e+06
-1.07904e+06
-1.06342e+06
-1.04947e+06
-1.07966e+06
-1.1401e+06
-1.24249e+06
-1.29883e+06
-1.39298e+06
-1.51867e+06
-1.74571e+06
-1.91295e+06
-1.95602e+06
-1.94146e+06
-1.91828e+06
-1.88827e+06
-1.885e+06
-1.88219e+06
-1.86259e+06
-1.83253e+06
-1.5359e+06
-1.47222e+06
-1.43085e+06
-1.39243e+06
-1.36051e+06
-1.37815e+06
-1.42636e+06
-1.45788e+06
-1.44245e+06
-1.30088e+06
-1.10457e+06
-1.04092e+06
-1.06962e+06
-1.0562e+06
-1.01516e+06
-972623
-939758
-949451
-984950
-1.0218e+06
-1.07436e+06
-1.06775e+06
-1.06005e+06
-1.06022e+06
-1.13784e+06
-1.28411e+06
-1.41686e+06
-1.49404e+06
-1.5113e+06
-1.50668e+06
-1.63362e+06
-1.83706e+06
-1.89151e+06
-1.86153e+06
-1.81886e+06
-1.76932e+06