/*--------------------------------*- C++ -*----------------------------------*\
  =========                 |
  \\      /  F ield         | OpenFOAM: The Open Source CFD Toolbox
   \\    /   O peration     | Website:  https://openfoam.org
    \\  /    A nd           | Version:  11
     \\/     M anipulation  |
\*---------------------------------------------------------------------------*/
FoamFile
{
    format      ascii;
    class       surfaceScalarField;
    location    "200";
    object      phi;
}
// * * * * * * * * * * * * * * * * * * * * * * * * * * * * * * * * * * * * * //

dimensions      [0 3 -1 0 0 0 0];

internalField   nonuniform List<scalar> 
376000
(
-0.00149151
-0.00433476
1.26699
0.231559
-0.247067
3.10383
0.338109
-0.121626
4.57572
0.602692
-0.286327
6.36802
0.847781
-0.262874
8.10086
1.09491
-0.26845
9.73245
1.25135
-0.174034
11.0698
1.26082
-0.0274658
11.9754
1.15889
0.0822867
12.6291
0.950931
0.192035
13.0886
0.37609
0.620293
15.7052
-0.334466
0.757291
28.3262
-0.684899
0.316735
35.9947
-0.739132
0.0173436
42.0232
-0.595827
-0.192976
48.2426
-0.326431
-0.328024
53.2977
0.0182204
-0.409369
57.1087
0.327322
-0.375253
57.5498
0.407463
-0.140233
50.8005
0.0784131
0.289895
40.8282
-0.332112
0.380381
36.7515
-0.441847
0.0553589
44.5089
-0.164807
-0.344189
57.1585
0.233632
-0.461429
59.8294
0.507237
-0.329311
55.283
0.618533
-0.155311
49.5584
0.478656
0.104705
42.6795
-0.0583381
0.52589
36.0397
-0.831795
0.900497
23.3984
-1.31581
0.457298
13.351
-1.54238
0.172905
12.9479
-1.69015
0.103554
12.7923
-1.64169
-0.0848349
12.2357
-1.42117
-0.2522
11.273
-1.1017
-0.354974
9.80578
-0.804962
-0.327825
8.04353
-0.470143
-0.370798
6.24433
-0.332429
-0.16585
4.36958
-0.0587759
-0.297156
2.93655
-0.0727389
1.33073
-0.236805
0.217903
3.09928
-0.246072
-0.263899
4.86867
-0.125367
-0.271334
6.77084
0.0713842
-0.522183
9.10725
0.411869
-0.642725
11.4599
0.765291
-0.663091
13.4939
1.14042
-0.589604
15.1433
1.30787
-0.23229
15.8139
1.14004
0.216683
15.9308
0.696466
0.623549
16.0641
0.199327
1.22149
20.7212
-0.233236
1.25579
35.9121
-0.550971
0.628311
48.1067
-0.702841
0.138849
58.3157
-0.737657
-0.185779
66.6651
-0.675721
-0.410867
73.765
-0.579273
-0.52348
79.2719
-0.500177
-0.469901
82.2961
-0.344582
-0.295315
81.2704
-0.0547703
0.0523514
69.8083
0.356944
0.0404397
67.7153
0.665018
-0.245434
79.0617
0.756213
-0.44453
82.3443
0.738657
-0.460949
80.5965
0.677719
-0.293094
75.424
0.520233
-0.0232412
68.0072
0.224824
0.382958
58.7569
-0.164902
0.96949
46.499
-0.680456
1.56847
29.2096
-1.32307
1.09567
16.9043
-1.75998
0.543488
16.8188
-1.79967
0.0890381
17.27
-1.47838
-0.460614
17.1837
-0.996722
-0.789369
16.0941
-0.554466
-0.857053
14.1694
-0.135505
-0.803939
11.8814
0.122438
-0.688589
9.34656
0.263809
-0.354018
6.7524
0.289316
-0.364687
4.77823
0.19009
2.97413
-0.108585
0.311405
4.5489
-0.251967
-0.149781
6.75807
-0.263984
-0.295354
9.13233
-0.245695
-0.587338
11.871
-0.108586
-0.831122
14.6394
0.106478
-0.93558
17.2084
0.428505
-0.969385
19.3039
0.80606
-0.678976
19.8079
0.844908
0.135362
18.4369
0.634715
0.829413
18.2996
0.41969
1.53964
24.1423
0.0961618
1.64189
37.7891
-0.322386
1.05132
52.6193
-0.599773
0.396637
64.315
-0.668602
-0.124657
73.0743
-0.619233
-0.435503
80.6563
-0.527378
-0.572428
88.327
-0.410287
-0.542051
96.0955
-0.276802
-0.392971
102.523
0.0457309
-0.236971
106.109
0.471908
-0.340638
104.755
0.660279
-0.390698
102.778
0.704207
-0.451894
98.009
0.683836
-0.415702
91.6153
0.610533
-0.218289
84.6838
0.447755
0.122026
77.0087
0.132912
0.689665
66.9023
-0.268262
1.44046
53.0666
-0.627425
2.0902
34.4002
-1.02426
1.54211
20.1159
-1.26865
0.720194
19.0457
-1.08646
-0.165285
20.4508
-0.606841
-1.02156
21.7839
-0.230989
-1.24037
20.5189
0.0364922
-1.20243
18.1886
0.21124
-1.04982
15.2881
0.243928
-0.789475
12.2633
0.245896
-0.411403
9.23471
0.106587
-0.273698
6.69738
0.266231
4.24052
-0.270809
0.560336
6.32186
-0.499896
0.0402309
9.052
-0.559991
-0.282554
11.8439
-0.5836
-0.622297
14.9343
-0.53413
-0.945112
18.1546
-0.391197
-1.14656
21.2052
-0.224917
-1.20788
23.7359
0.182618
-1.1534
25.4566
0.646099
-0.416183
21.4389
0.654621
0.824323
20.5421
0.725026
1.52529
25.7865
0.702872
1.66226
35.7025
0.346599
1.3543
44.6954
-0.144045
0.858347
53.7584
-0.529114
0.258589
63.5859
-0.636477
-0.294026
68.4472
-0.54492
-0.607727
74.5777
-0.39986
-0.619005
82.4152
-0.273023
-0.454781
90.1159
-0.0248671
-0.41064
93.8033
0.36929
-0.625674
88.3624
0.632887
-0.560488
87.3031
0.777795
-0.525092
83.6632
0.842205
-0.435124
78.4726
0.743363
-0.114355
73.5786
0.389795
0.451095
68.1827
-0.132315
1.15957
61.1627
-0.539136
1.83033
49.7968
-0.59221
2.2218
36.1464
-0.69768
1.71635
23.1835
-0.744754
0.720806
21.0997
-0.230298
-0.797548
24.2821
0.175623
-1.508
27.0283
0.381332
-1.53744
25.0662
0.553159
-1.46431
22.3279
0.625619
-1.20958
19.0043
0.609472
-0.856093
15.4995
0.541637
-0.41368
12.102
0.315027
-0.108301
9.06291
0.538895
6.05878
-0.249408
0.791766
8.02543
-0.613647
0.364706
11.3627
-0.796059
-0.151587
14.5567
-0.906625
-0.576206
18.1046
-0.941757
-0.983515
21.8657
-0.905226
-1.26137
25.5475
-0.790785
-1.40436
28.7132
-0.650519
-1.37515
30.9082
-0.01231
-1.12362
31.8021
0.754394
0.0725562
22.6401
1.08098
1.21936
26.4402
1.32914
1.38367
32.6211
1.36783
1.25489
38.2143
1.13311
1.03874
42.9914
0.642485
0.726832
45.1608
0.0923509
0.301802
51.1803
-0.325691
-0.157054
59.8094
-0.486024
-0.407888
65.5237
-0.476453
-0.396362
69.8764
-0.202857
-0.59511
68.437
0.21948
-0.95703
62.2907
0.402614
-0.651258
63.539
0.368578
-0.4178
63.1295
0.113299
-0.143169
61.0842
-0.303055
0.320951
56.6903
-0.754169
0.825987
50.5221
-1.06409
1.34621
48.8932
-1.05274
1.73416
43.5001
-0.806451
1.96843
34.6987
-0.628236
1.58824
25.0242
0.114059
-0.0647753
21.397
0.755669
-1.50104
32.8524
0.881413
-1.73015
32.1753
1.00796
-1.76484
30.0382
1.03672
-1.59413
26.7713
0.988684
-1.25819
22.8561
0.836016
-0.792507
18.772
0.647102
-0.298776
14.8676
0.292114
0.18225
11.3265
0.792914
7.71842
-0.256575
1.02656
9.62071
-0.633319
0.699974
13.3359
-0.892116
0.0497844
17.042
-1.09903
-0.437155
21.0866
-1.21515
-0.945316
25.488
-1.25821
-1.30092
30.0123
-1.21448
-1.53409
34.15
-1.11248
-1.56027
37.3799
-0.903976
-1.40536
39.1313
0.0416628
-0.946023
38.6438
1.12407
0.182552
29.8463
1.62254
0.88168
32.4736
1.87017
0.997778
35.6517
1.90114
1.00057
38.81
1.73534
0.906099
41.3993
1.25089
0.820251
44.0189
0.506387
0.636413
46.4504
-0.178301
0.321865
52.7182
-0.460593
-0.0856679
55.9158
-0.374424
-0.661601
55.7003
-0.296764
-1.01138
55.2149
-0.556406
-0.341203
51.8597
-1.03971
0.122126
48.7354
-1.52625
0.375863
45.2569
-1.85093
0.630265
44.3106
-1.91199
0.833718
43.0657
-1.78079
1.12188
41.3535
-1.45365
1.32476
38.0202
-0.958442
1.43098
32.8561
0.186085
0.47138
27.3861
1.19585
-1.15455
38.1149
1.35005
-1.74311
39.5073
1.42188
-1.90379
38.434
1.43233
-1.88127
35.5127
1.35327
-1.6214
31.3635
1.19484
-1.20176
26.6143
0.959968
-0.650469
21.8337
0.711481
-0.131049
17.3967
0.33325
0.493719
13.4147
1.08277
9.34457
-0.159223
1.16809
10.9044
-0.556345
1.05596
14.9036
-0.929969
0.365651
19.0877
-1.15985
-0.279011
23.5526
-1.35487
-0.831616
28.6022
-1.48921
-1.25216
34.1066
-1.53729
-1.57653
39.4246
-1.49055
-1.6961
44.0151
-1.37035
-1.60752
47.4096
-1.051
-1.32601
49.2489
-0.0638883
-0.830642
48.9568
0.969798
-0.065413
42.5113
1.50114
0.503383
41.5993
1.69084
0.855299
42.5043
1.59286
1.04985
44.0041
1.30298
1.15591
45.8303
0.762635
1.22843
48.3029
0.0577001
1.07581
52.9078
-0.333703
0.329155
57.3675
-0.42468
-0.561189
59.6188
-0.624003
-0.782731
59.0725
-1.07839
0.172421
52.054
-1.60661
0.708027
48.4112
-1.93077
0.750302
45.9425
-2.05114
0.781549
43.9174
-2.02834
0.820662
42.108
-1.75017
0.839897
40.378
-1.20278
0.764974
38.4814
0.0442699
0.230723
36.6721
1.35433
-0.857098
45.5011
1.71636
-1.57261
48.6874
1.80303
-1.92001
48.1742
1.80944
-2.01569
45.4171
1.7115
-1.89341
41.0743
1.52872
-1.54708
35.7032
1.26643
-1.04202
29.9207
0.969142
-0.446378
24.3544
0.670258
0.0862721
19.4214
0.28068
0.818697
15.0222
1.3263
10.7216
-0.0151417
1.1653
11.7585
-0.177951
1.18162
15.4084
-0.609419
0.726498
19.2803
-1.09833
0.1438
25.2206
-1.32541
-0.68412
30.7584
-1.5153
-1.14401
37.3162
-1.65682
-1.52351
43.9988
-1.70499
-1.73792
50.0795
-1.67634
-1.72179
55.1037
-1.56209
-1.51311
58.6743
-1.28525
-1.15447
60.5645
-0.639891
-0.731952
60.553
0.105922
-0.18533
56.8056
0.629001
0.415002
52.0588
0.834476
0.918346
51.0447
0.757096
1.30504
51.2479
0.507491
1.55298
52.9781
0.275254
1.3814
57.7297
0.132828
0.526808
64.8375
-0.124823
-0.286209
65.9486
-0.432667
-0.451297
65.8888
-0.657104
0.457458
60.3714
-0.850942
0.971943
54.8979
-0.98657
0.956104
52.6371
-1.00931
0.871864
51.1983
-0.78339
0.661787
50.2751
-0.262374
0.38159
49.8173
0.664841
-0.0776625
52.718
1.63104
-0.733438
58.3158
2.02842
-1.30092
60.1229
2.12475
-1.75104
59.3546
2.08654
-1.98278
56.5356
1.95321
-1.99265
51.9539
1.73338
-1.78447
46.01
1.44189
-1.36168
39.1969
1.08428
-0.783249
32.1775
0.728199
-0.178723
25.6824
0.480575
0.256129
19.9414
0.214046
1.02831
15.827
1.50532
11.7857
0.0782735
1.06825
12.3845
0.258239
0.97001
15.4877
0.21965
0.726078
17.8443
-0.324564
0.61113
20.504
-1.05922
-0.0169115
31.6237
-1.35689
-0.91624
39.0761
-1.56773
-1.39369
47.4057
-1.68868
-1.70203
55.1177
-1.73507
-1.76123
61.9481
-1.72222
-1.60251
67.4442
-1.63227
-1.30264
71.3273
-1.4781
-0.910442
73.3596
-1.12966
-0.515927
73.0272
-0.618139
-0.0073546
68.7087
-0.1425
0.557005
64.4672
0.204074
1.08086
61.5106
0.398254
1.47527
61.3761
0.579369
1.30528
65.6376
0.573786
0.601674
71.779
0.179943
0.137534
72.8683
-0.245253
-0.00215341
73.2261
-0.306593
0.581232
72.535
-0.116351
0.887782
68.3385
0.112399
0.837665
66.842
0.451662
0.642245
66.6249
0.897283
0.31263
67.6709
1.44914
-0.0949569
70.1942
1.93975
-0.565593
73.4443
2.16791
-0.996305
73.7817
2.24992
-1.45344
72.2722
2.19398
-1.78625
69.0178
2.04206
-1.93612
64.0328
1.81154
-1.87075
57.5415
1.50786
-1.58568
49.8381
1.10933
-1.05866
41.3759
0.600716
-0.358565
32.8648
0.270975
0.0749054
24.8188
0.254011
0.237052
19.9229
0.14652
1.09361
16.197
1.62101
12.5676
0.221767
0.832979
12.8778
0.66647
0.526256
15.8717
0.885314
0.516864
18.1863
0.888825
0.620234
20.348
0.125022
0.766177
22.6158
-0.898268
0.044808
38.5563
-1.28668
-1.06454
49.299
-1.48079
-1.57979
58.7318
-1.57637
-1.7417
67.479
-1.61736
-1.63726
74.9757
-1.61281
-1.37012
80.9664
-1.54562
-1.02075
85.3356
-1.44242
-0.627033
87.9429
-1.20941
-0.20188
88.2193
-0.812471
0.265807
84.7637
-0.31741
0.733946
81.0136
0.201081
1.12525
78.377
0.615539
1.03171
81.7699
0.644687
0.656032
86.4276
0.385413
0.421106
84.4576
0.11828
0.288594
84.4441
0.174663
0.589206
87.045
0.538295
0.632422
87.5714
0.909585
0.577188
87.5102
1.28968
0.358338
88.0959
1.63916
0.0289754
89.2307
1.90208
-0.346146
90.4817
2.04807
-0.737787
89.437
2.13787
-1.14559
86.8042
2.11282
-1.50886
82.7721
1.97994
-1.74978
77.2442
1.75884
-1.81824
70.2267
1.45303
-1.66659
61.8538
1.03963
-1.26334
52.2709
0.406798
-0.50058
41.7582
-0.123822
0.112702
29.9779
-0.156097
0.10268
24.0712
-0.011671
0.095866
21.3027
0.0324197
1.01951
16.0979
1.62463
13.0174
0.688641
0.20608
16.724
1.25712
0.072166
22.4347
1.54249
0.326158
25.6343
1.50948
0.693332
26.5886
1.19146
1.09372
26.7497
0.169088
1.11145
30.2307
-0.807132
-0.112585
49.1533
-1.12529
-1.30758
60.6998
-1.27766
-1.64708
71.419
-1.34936
-1.62842
81.0123
-1.38134
-1.39781
88.9665
-1.37727
-1.07064
95.3501
-1.31796
-0.71202
100.129
-1.19216
-0.321941
103.194
-0.951262
0.0757749
103.798
-0.566695
0.448541
102.84
-0.0643715
0.760472
101.313
0.330378
0.75503
102.958
0.452206
0.60349
103.585
0.417629
0.486724
97.6929
0.396271
0.348485
98.4154
0.546911
0.505248
102.943
0.830757
0.427363
106.603
1.14118
0.337388
107.423
1.43806
0.112132
107.634
1.6686
-0.188939
107.536
1.82783
-0.523492
105.578
1.92693
-0.88329
102.143
1.92867
-1.21256
97.4611
1.83219
-1.49467
91.4309
1.63743
-1.64578
84.0271
1.3429
-1.61716
75.1882
0.958273
-1.36726
65.014
0.328474
-0.700241
53.2983
-0.432478
0.236409
38.622
-0.712451
0.397893
31.3873
-0.603445
0.0374807
28.7068
-0.450993
-0.00544333
23.146
-0.127437
0.692254
16.0946
1.47262
13.2101
0.690653
-0.472463
29.6994
1.13388
-0.341139
37.3454
1.50571
-8.1741e-05
39.1736
1.55183
0.629605
36.2716
1.30006
1.31013
32.7427
0.821919
1.58828
32.7705
-0.0896638
0.880359
43.441
-0.717798
-0.699066
60.8178
-0.891368
-1.49745
73.5483
-1.00278
-1.55987
85.4448
-1.0537
-1.39226
95.3996
-1.07408
-1.09086
103.589
-1.04964
-0.763372
110.165
-0.966649
-0.414621
115.167
-0.797139
-0.0774957
118.551
-0.529953
0.228891
120.126
-0.164332
0.469893
120.777
0.14032
0.522263
121.607
0.323381
0.475139
120.152
0.399387
0.447961
112.993
0.458531
0.331146
114.242
0.64901
0.373536
119.66
0.883242
0.246759
123.437
1.12575
0.134706
123.992
1.34142
-0.0852215
123.44
1.50033
-0.355223
121.29
1.60482
-0.656722
117.604
1.63612
-0.961738
112.589
1.59362
-1.23319
106.283
1.4566
-1.43235
98.6393
1.21489
-1.48456
89.633
0.880536
-1.36134
79.1843
0.395815
-0.94839
67.3031
-0.332049
0.0109618
52.1719
-0.881898
0.776033
40.1947
-1.03932
0.559984
38.7831
-1.02902
0.102913
38.5748
-0.87973
-0.0248021
31.1704
-0.365818
0.268079
19.2855
1.09351
13.2745
0.257341
-0.769057
36.3399
0.534768
-0.635986
48.7532
0.92572
-0.405638
53.3871
1.25097
0.250004
44.9149
1.19537
1.31046
38.2489
0.964544
1.81523
35.9504
0.470252
1.41157
42.1867
-0.19227
0.0162976
57.4634
-0.500261
-1.17145
73.3681
-0.613136
-1.45539
88.1326
-0.697364
-1.33339
100.222
-0.748899
-1.0665
110.199
-0.759198
-0.774834
118.32
-0.719748
-0.46511
124.793
-0.614694
-0.180362
129.762
-0.440204
0.0758784
133.037
-0.198308
0.264521
135.031
0.0193941
0.343795
135.843
0.195291
0.335364
134.088
0.331326
0.343002
127.241
0.450944
0.243379
128.521
0.627496
0.236574
133.896
0.81207
0.0932328
137
0.999646
-0.0354725
137.032
1.16655
-0.252131
135.446
1.29432
-0.499048
132.045
1.37269
-0.76474
127.289
1.38827
-1.02144
121.116
1.32084
-1.21993
113.622
1.15449
-1.32866
104.734
0.879364
-1.27378
94.4962
0.497576
-1.03946
82.7557
-0.0431003
-0.439875
69.3478
-0.559983
0.552382
52.2957
-0.84118
1.04773
44.9927
-0.957263
0.648329
47.1367
-0.991184
0.16102
51.8683
-0.94998
0.055271
48.6874
-0.632331
0.11313
34.1596
0.584714
18.4796
-0.0150789
-0.795383
42.3371
0.0822063
-0.76898
58.6459
0.308201
-0.655647
64.7239
0.770975
-0.241267
54.6352
0.99771
1.03603
43.165
0.984937
1.8259
39.1986
0.831781
1.60982
43.0845
0.393191
0.540699
52.9541
-0.00640691
-0.684742
69.4617
-0.191648
-1.23299
88.5612
-0.308359
-1.2107
103.339
-0.397937
-0.986366
115.226
-0.445523
-0.737419
124.815
-0.446279
-0.470331
132.555
-0.387893
-0.236808
138.664
-0.278302
-0.0218644
143.155
-0.119423
0.127017
145.995
0.0342557
0.214956
147.121
0.175757
0.219105
145.679
0.307313
0.235249
139.751
0.42344
0.151883
140.852
0.571618
0.117414
145.852
0.71188
-0.0267117
148.23
0.848362
-0.164158
147.591
0.966503
-0.372733
145.049
1.05304
-0.599063
140.831
1.10326
-0.838808
135.21
1.10078
-1.05326
128.103
1.03445
-1.19598
119.642
0.870481
-1.21396
109.804
0.607325
-1.06108
98.685
0.211994
-0.689826
86.0699
-0.199027
-0.027159
71.1317
-0.461159
0.842908
56.3279
-0.601906
1.19328
49.8909
-0.625914
0.641324
53.8327
-0.597817
0.125503
62.7558
-0.543748
0.05804
65.2302
-0.423309
0.0825451
52.1141
0.276594
32.777
-0.207377
-0.641333
48.322
-0.211755
-0.795394
66.8907
-0.163312
-0.711931
73.3947
0.206598
-0.616991
64.2354
0.706039
0.525871
45.5489
0.921346
1.62766
41.9756
1.04639
1.53075
44.6426
0.894254
0.767415
51.8542
0.539093
-0.216382
65.4364
0.26246
-0.854908
85.4432
0.0796356
-0.978285
104.069
-0.0688997
-0.822028
118.623
-0.169176
-0.634619
129.776
-0.223314
-0.415138
138.648
-0.22273
-0.233831
145.659
-0.177173
-0.0598863
150.943
-0.0900741
0.0526694
154.388
0.00777985
0.132195
155.84
0.107831
0.134534
154.682
0.214678
0.142966
149.474
0.314959
0.0661294
150.437
0.431726
0.0172115
155.066
0.542005
-0.127766
156.694
0.655912
-0.276065
155.334
0.763713
-0.485103
152.167
0.860028
-0.707266
147.329
0.93677
-0.933017
141.097
0.981394
-1.12141
133.346
0.964197
-1.20618
124.299
0.844874
-1.12719
113.963
0.581798
-0.833507
102.61
0.175958
-0.314992
89.9577
-0.158956
0.314557
75.569
-0.301105
1.02616
61.4029
-0.291844
1.21404
54.7955
-0.228499
0.581198
59.7046
-0.190864
0.0888409
71.743
-0.0961475
-0.0177641
78.4773
0.00998652
-0.00539011
65.7559
0.329311
44.751
-0.331644
-0.370279
53.1512
-0.42241
-0.728044
73.8984
-0.447937
-0.664139
81.1113
-0.317796
-0.716561
69.312
0.299572
-0.0534671
52.7451
0.854787
1.10497
44.8503
1.17199
1.25685
46.5135
1.28499
0.725038
51.9809
1.05072
0.139895
62.5711
0.721245
-0.382281
81.9379
0.451
-0.611593
103.239
0.243023
-0.567265
120.221
0.0976101
-0.466271
133.026
0.00719703
-0.312128
143.088
-0.0298905
-0.187206
150.935
-0.0232224
-0.0566727
156.818
0.0189395
0.0224188
160.774
0.078488
0.085983
162.571
0.144439
0.082208
161.705
0.22016
0.0797971
157.099
0.290367
0.00977883
157.939
0.370537
-0.0477539
162.272
0.440041
-0.18626
163.276
0.507926
-0.337743
161.419
0.57011
-0.54489
157.695
0.63425
-0.77294
152.234
0.709203
-1.01189
145.305
0.801116
-1.22012
136.782
0.873199
-1.28783
127.049
0.849794
-1.12262
116.28
0.646339
-0.658464
105.222
0.282689
0.0221874
93.2623
-0.0141476
0.610361
79.991
-0.0915632
1.14292
66.539
-0.0068819
1.18021
59.9834
0.0591106
0.54732
66.5413
0.0617374
0.104238
80.0929
0.157075
-0.106902
88.4975
0.254668
-0.106773
74.6687
0.573502
53.2178
-0.395207
-0.0395239
56.5905
-0.513524
-0.629799
79.298
-0.554587
-0.584702
88.8488
-0.58829
-0.634203
75.6886
-0.130458
-0.485854
61.6993
0.692491
0.32569
47.3523
1.26104
0.736513
48.9501
1.54234
0.516353
53.6121
1.4461
0.352791
62.2227
1.09661
0.13072
79.3504
0.747928
-0.131136
101.834
0.473117
-0.22049
120.867
0.274939
-0.23113
134.963
0.14085
-0.157515
145.874
0.0598731
-0.0927649
154.317
0.0220152
-0.00871382
160.693
0.0158742
0.0378739
164.96
0.0308486
0.0800825
166.964
0.0535988
0.0681692
166.19
0.08665
0.0544174
161.781
0.116917
-0.0128901
162.549
0.157602
-0.0806331
166.723
0.198916
-0.221525
167.169
0.255559
-0.390267
164.759
0.33462
-0.620223
160.457
0.456551
-0.890344
154.355
0.640172
-1.1865
146.734
0.890166
-1.45389
137.392
1.12588
-1.50424
126.991
1.20347
-1.19628
116.217
1.0001
-0.468327
106.611
0.583838
0.417352
96.8541
0.206448
0.984763
84.9806
0.0696554
1.31501
72.1667
0.144935
1.1573
65.5555
0.164998
0.566522
73.0516
0.159881
0.138009
88.2153
0.266116
-0.202659
97.2542
0.398838
-0.24748
79.2844
0.943805
58.9107
-0.327502
0.223851
55.8496
-0.459762
-0.514922
82.3034
-0.52328
-0.478789
96.2446
-0.585474
-0.507296
82.8588
-0.387634
-0.63069
65.8663
0.31592
-0.343024
53.6014
1.07918
0.0196703
53.4366
1.36994
0.30055
58.5172
1.28649
0.540695
66.6572
1.02783
0.524278
82.6113
0.765338
0.246663
103.162
0.550918
0.0652046
121.481
0.382786
-0.0208189
135.629
0.263002
-0.0115794
146.901
0.179735
0.00903793
155.737
0.133229
0.0518095
162.484
0.112183
0.0714233
167.034
0.112402
0.0912661
169.256
0.119868
0.071757
168.584
0.134407
0.0499366
164.306
0.14449
-0.0108446
164.984
0.157612
-0.0801127
169.128
0.157284
-0.207651
169.335
0.152045
-0.370641
166.566
0.150019
-0.59975
161.701
0.190773
-0.90556
154.731
0.349612
-1.30699
145.839
0.670757
-1.72155
134.638
0.987706
-1.77528
122.782
1.11535
-1.30978
112.294
1.00118
-0.356384
104.36
0.597664
0.811513
96.5825
0.180761
1.39657
86.5749
0.081341
1.43436
75.0733
0.171376
1.10226
69.3271
0.164981
0.606993
78.1563
0.132393
0.199255
95.3935
0.163233
-0.216475
104.074
0.158829
-0.230199
75.2251
1.03373
54.4032
-0.0803591
0.259098
47.7591
-0.290507
-0.310907
81.9091
-0.395364
-0.335838
102.03
-0.46778
-0.363167
88.9689
-0.446636
-0.57274
68.0092
-0.235841
-0.528195
55.757
0.194902
-0.387765
58.5412
0.446719
0.10361
67.4247
0.54284
0.505688
73.0488
0.658319
0.482106
87.0367
0.623519
0.348982
103.441
0.510027
0.233918
119.75
0.373822
0.154652
133.728
0.257549
0.130377
145.33
0.161212
0.123008
154.501
0.0929665
0.132027
161.533
0.041953
0.131762
166.226
0.00670689
0.133815
168.451
-0.0275602
0.113173
167.532
-0.0633007
0.0915729
162.843
-0.113074
0.0433058
163.616
-0.166911
-0.0209962
168.077
-0.230618
-0.135463
167.793
-0.283654
-0.304821
164.308
-0.28862
-0.57439
158.537
-0.17276
-0.989772
150.468
0.117966
-1.54039
140.274
0.432397
-1.95099
127.352
0.503643
-1.77577
115.839
0.289396
-1.03721
107.85
0.007783
-0.0305307
102.161
-0.207027
1.05559
95.6223
-0.295651
1.51292
86.5923
-0.172085
1.33318
76.3666
-0.0555306
0.999627
71.0916
-0.176316
0.732417
85.3663
-0.315977
0.355338
105.907
-0.470565
0.0294813
101.322
-0.636311
-0.0180855
55.3272
0.301806
45.4997
0.19232
0.0516722
40.0037
-0.00269596
-0.0793307
73.7845
-0.324286
0.0255591
105.058
-0.544656
-0.0467183
90.3443
-0.796068
-0.228566
64.8486
-0.881746
-0.425844
55.9707
-0.732493
-0.521478
60.3961
-0.345732
-0.264455
66.6075
0.156527
0.0306671
73.1047
0.464309
0.197907
83.88
0.549886
0.300687
96.8367
0.523936
0.303853
112.086
0.429127
0.288829
126.612
0.328147
0.259909
139.216
0.236093
0.235629
149.271
0.169968
0.212661
156.92
0.123438
0.190174
161.994
0.0975098
0.169664
164.353
0.0759465
0.144497
163.269
0.057947
0.119038
158.074
0.0343878
0.0791568
158.871
0.00265256
0.0242073
164.068
-0.065882
-0.0517962
164.235
-0.184646
-0.165873
160.909
-0.389926
-0.334694
154.949
-0.698888
-0.612516
145.827
-1.15571
-0.969506
132.984
-1.84732
-1.15907
119.045
-2.63749
-0.91263
110.023
-3.20024
-0.376095
104.291
-3.25705
0.144375
97.6541
-2.76157
0.619585
90.3953
-2.06475
0.822675
83.7896
-1.36008
0.611372
79.6435
-0.808007
0.428476
82.3419
-0.508717
0.430597
97.0116
-0.393302
0.252501
110.663
-0.474163
0.200863
106.184
-0.667769
0.284591
60.2725
-0.418141
36.1025
0.313436
-0.279106
36.9883
0.0262364
0.269859
70.1785
-0.365761
0.465521
103.924
-0.666611
0.369598
86.5634
-0.998847
0.196391
61.1307
-0.948324
-0.440974
54.7759
-0.603137
-0.820864
57.6781
-0.227607
-0.599727
64.2076
0.185683
-0.353356
72.4717
0.409419
0.00683348
83.5034
0.454317
0.303606
97.4567
0.424723
0.381581
113.373
0.335607
0.416877
127.901
0.240264
0.382361
140.311
0.146706
0.348177
150.178
0.0726238
0.299683
157.708
0.00922175
0.26351
162.668
-0.0430056
0.229928
164.901
-0.103234
0.213483
163.663
-0.185344
0.206753
158.581
-0.306762
0.201222
159.545
-0.477706
0.199276
164.433
-0.755994
0.238618
163.779
-1.20773
0.316822
159.169
-1.9341
0.474274
150.496
-3.08695
0.69098
136.339
-4.86874
0.921218
120.776
-6.9028
0.923154
113.518
-8.24018
0.554289
110.748
-8.25901
-0.181355
106.248
-7.1714
-0.812631
100.64
-5.6458
-0.846214
95.7165
-4.10446
-0.712599
92.5921
-2.70096
-0.813032
92.5677
-1.57636
-0.712659
97.2855
-0.70238
-0.435073
107.037
-0.259018
-0.176135
114.897
-0.163666
0.140282
110.597
-0.201338
0.379534
68.9124
-0.649657
39.9822
0.126562
-0.464728
43.6187
-0.197252
0.604709
77.7057
-0.32196
0.62804
102.95
-0.45869
0.589889
88.4028
-0.506065
0.330548
65.1421
-0.123927
-0.768628
51.8102
0.438571
-1.32356
51.1978
0.710671
-0.805246
58.1355
0.787246
-0.346969
70.3065
0.743815
0.133585
85.5264
0.63576
0.492282
101.977
0.497662
0.586676
118.876
0.36945
0.593613
133.335
0.260014
0.525408
145.359
0.173446
0.459249
154.821
0.11241
0.379096
162.04
0.0712991
0.320321
166.867
0.0474298
0.267819
169.199
0.0297978
0.245444
168.442
0.0107873
0.240532
163.992
-0.0166725
0.244065
164.761
-0.0496915
0.247921
169.424
-0.1066
0.314772
169.311
-0.198532
0.434837
166.012
-0.33945
0.658423
160.267
-0.573852
1.00391
151.539
-0.999404
1.47452
139.304
-1.74548
1.80378
124.932
-2.61288
1.53361
112.586
-3.30647
0.602403
103.817
-3.60118
-0.435479
97.9661
-3.33402
-1.02895
92.2014
-2.55394
-1.42588
85.5359
-1.60124
-1.72493
79.9234
-0.783132
-1.49393
80.3432
-0.301695
-0.880342
93.4561
-0.119446
-0.342328
107.77
-0.104452
0.142665
109.907
-0.0359519
0.335292
75.3919
-0.725664
44.58
-0.313382
-0.216363
56.4749
-0.415784
0.700791
81.9876
-0.399178
0.642308
98.2452
-0.451815
0.703063
84.8606
-0.298033
0.240697
65.1612
0.235722
-1.2395
48.5829
0.776482
-1.80023
48.5284
1.03893
-0.998319
54.6889
0.966204
-0.164125
67.5721
0.719275
0.49802
86.6859
0.519819
0.780243
105.839
0.3536
0.811718
122.7
0.221884
0.762963
136.399
0.116952
0.653842
147.617
0.03817
0.553758
156.389
-0.0170589
0.444971
163.054
-0.0554955
0.367512
167.468
-0.0815985
0.301944
169.522
-0.105184
0.277683
168.62
-0.137196
0.279024
164.355
-0.184215
0.295042
165.105
-0.230658
0.29962
169.471
-0.282431
0.374219
169.237
-0.320441
0.483241
166.02
-0.304401
0.658024
160.756
-0.173496
0.896847
153.458
0.142024
1.2052
144.382
0.503647
1.52074
132.787
0.589525
1.52982
121.145
0.179872
1.07376
111.765
-0.525454
0.32465
104.584
-1.00552
-0.477886
95.1445
-1.02252
-1.32868
84.5832
-0.747264
-1.92427
73.5191
-0.36922
-1.7914
68.1452
-0.163511
-1.01633
80.1551
-0.0981443
-0.375794
99.6907
-0.00253596
0.0525084
106.626
0.116427
0.224558
75.9468
-0.669712
49.8746
-0.449008
0.172031
59.5855
-0.426712
0.662775
80.3218
-0.368039
0.60372
91.6381
-0.37026
0.740818
79.1751
-0.0471526
-0.0571579
62.3992
0.427388
-1.67595
45.0786
0.748148
-2.05981
45.9101
0.936009
-1.10924
53.1525
0.834679
0.0491311
67.5545
0.619053
0.824812
87.5072
0.423247
1.05197
106.861
0.254795
1.02515
123.196
0.127393
0.915836
136.269
0.0346092
0.761326
146.831
-0.0241406
0.621925
155.068
-0.053249
0.481451
161.255
-0.0584823
0.380554
165.373
-0.0463777
0.298178
167.248
-0.0240007
0.26456
166.311
0.000367298
0.26377
161.925
0.017194
0.287746
162.636
0.035427
0.291284
167.321
0.0439731
0.376388
167.547
0.0485296
0.490021
164.888
0.0567874
0.663511
160.321
0.0873986
0.883206
153.836
0.194258
1.12206
145.775
0.40309
1.34413
135.759
0.604046
1.36058
124.739
0.63737
1.05102
113.751
0.530759
0.434538
104.291
0.255722
-0.195289
94.5345
-0.0912776
-0.946958
83.8788
-0.172924
-1.75582
69.8011
0.0321169
-1.89362
59.6592
0.209521
-1.11441
66.5101
0.214269
-0.328209
84.0711
0.242682
0.0466251
95.2076
0.312511
0.149287
78.7775
-0.396076
54.8293
-0.308099
0.429877
54.7912
-0.253555
0.586374
74.9847
-0.175297
0.524402
84.317
-0.0449288
0.606869
73.5671
0.382753
-0.458025
55.4742
0.631591
-1.94103
43.9625
0.763828
-2.15169
43.5672
0.84864
-1.11855
51.6244
0.653772
0.353486
67.2521
0.411776
1.16051
87.9138
0.204873
1.3135
106.888
0.0411793
1.21332
122.326
-0.0773919
1.04223
134.591
-0.155045
0.839884
144.272
-0.193944
0.660834
151.812
-0.202486
0.490726
157.491
-0.186935
0.36757
161.22
-0.157161
0.272573
162.751
-0.116717
0.229378
161.495
-0.0761676
0.226186
156.869
-0.0455759
0.259263
157.604
-0.00390813
0.252295
162.591
0.0422016
0.332482
163.033
0.108165
0.42523
160.594
0.201366
0.570605
156.4
0.332988
0.751004
150.513
0.515045
0.940295
143.321
0.733882
1.12883
134.659
0.90629
1.19504
125.035
0.874225
1.08581
114.644
0.599131
0.704201
104.459
0.225059
0.175492
93.483
-0.0833927
-0.598026
80.7516
-0.222472
-1.51797
64.4531
-0.152241
-1.87018
53.838
-0.00845941
-1.18149
58.372
0.0365244
-0.336196
75.8588
0.101112
-0.00364226
87.0558
0.184719
0.0670248
73.5558
-0.218312
50.6606
-0.115456
0.510371
48.8516
0.0357619
0.414093
67.3753
0.199489
0.347347
76.3037
0.54278
0.232582
67.5393
0.867086
-0.872518
50.1811
0.825194
-1.96077
42.5133
0.799953
-2.11069
41.4993
0.655422
-0.899443
50.3725
0.351119
0.752979
67.8303
0.0950401
1.48194
88.6082
-0.0866494
1.51561
106.376
-0.215658
1.34071
120.2
-0.299308
1.1168
131.068
-0.337029
0.868745
139.886
-0.335504
0.653202
146.814
-0.302221
0.455404
151.991
-0.243759
0.31114
155.332
-0.169798
0.203862
156.521
-0.0805947
0.146919
154.984
0.0114917
0.139723
149.908
0.0845481
0.191586
150.757
0.158892
0.185055
156.203
0.22675
0.270266
157.12
0.297599
0.357178
155.099
0.36879
0.49919
151.32
0.439043
0.676011
145.865
0.511185
0.859503
139.08
0.584672
1.0414
130.866
0.632455
1.12963
121.594
0.59375
1.10161
111.242
0.416337
0.857642
100.216
0.137546
0.440835
87.9444
-0.140826
-0.288905
74.1797
-0.302168
-1.27592
58.1401
-0.371034
-1.73897
48.5448
-0.314181
-1.2287
51.6524
-0.202574
-0.429974
65.3591
-0.117697
-0.0636651
75.4817
-0.0406708
0.00882357
64.8377
-0.219115
42.7028
0.163026
0.320183
41.9104
0.470974
0.102612
57.8514
0.817244
0.00630155
65.8175
1.28274
-0.278027
59.919
1.41817
-1.13457
48.4873
1.1453
-1.79014
40.9348
0.841014
-1.81031
39.6779
0.417784
-0.413092
49.4777
-0.0316733
1.2811
69.3151
-0.275547
1.73789
89.5779
-0.422544
1.64995
104.427
-0.520878
1.41457
116.363
-0.565119
1.13712
126.076
-0.564902
0.848742
134.002
-0.523015
0.598161
140.253
-0.452753
0.378776
144.855
-0.357927
0.216091
147.702
-0.25414
0.104582
148.412
-0.132123
0.0313099
146.369
-0.0169004
0.028458
140.688
0.0654989
0.111808
141.693
0.162756
0.0920601
147.794
0.265205
0.170099
149.126
0.385524
0.235446
147.412
0.516983
0.361609
144.01
0.645417
0.535126
139.031
0.759717
0.726713
132.828
0.836794
0.940061
125.374
0.845971
1.09242
116.85
0.742803
1.17492
107.192
0.49415
1.07743
96.4762
0.0876199
0.828621
84.3701
-0.302919
0.14346
69.1635
-0.544347
-0.956593
52.8793
-0.72471
-1.52332
44.2922
-0.795907
-1.17995
47.4328
-0.713751
-0.51076
56.9846
-0.602937
-0.105671
62.9687
-0.474713
-0.0224427
51.6691
-0.579347
31.4052
0.635749
-0.279737
34.6865
1.13891
-0.30303
44.6468
1.64091
-0.389136
50.983
1.99
-0.627216
48.4787
1.83409
-1.05603
42.9364
1.37968
-1.42184
37.647
0.814002
-1.2581
37.687
-0.0190239
0.517693
51.3661
-0.516502
1.78232
72.6263
-0.680049
1.87716
88.4064
-0.798475
1.72647
100.896
-0.840504
1.41442
111.172
-0.834728
1.09374
119.608
-0.779764
0.766088
126.52
-0.689033
0.490184
131.973
-0.572842
0.256089
135.91
-0.436434
0.0822972
138.187
-0.289858
-0.0311753
138.335
-0.114209
-0.127513
135.603
0.0576815
-0.127352
129.133
0.163602
0.0133147
130.755
0.26358
0.00356589
137.403
0.373977
0.0671844
139.419
0.498347
0.113252
138.142
0.632567
0.223103
135.164
0.756213
0.397636
130.65
0.856605
0.6033
125.003
0.915076
0.848136
118.253
0.914164
1.05267
110.485
0.822379
1.21963
101.593
0.6274
1.22636
91.5642
0.300356
1.11468
80.133
-0.17425
0.625686
66.0358
-0.62017
-0.458393
48.6582
-0.981509
-1.14232
40.0771
-1.19707
-0.977251
41.6755
-1.1947
-0.476279
46.6655
-1.03678
-0.127099
46.6716
-0.658882
-0.236749
34.2959
-1.139
18.9379
0.862567
-1.0182
20.4448
1.59611
-0.868234
26.3501
2.16672