/*--------------------------------*- C++ -*----------------------------------*\
  =========                 |
  \\      /  F ield         | OpenFOAM: The Open Source CFD Toolbox
   \\    /   O peration     | Website:  https://openfoam.org
    \\  /    A nd           | Version:  11
     \\/     M anipulation  |
\*---------------------------------------------------------------------------*/
FoamFile
{
    format      ascii;
    class       volVectorField;
    location    "200";
    object      U;
}
// * * * * * * * * * * * * * * * * * * * * * * * * * * * * * * * * * * * * * //

dimensions      [0 1 -1 0 0 0 0];

internalField   nonuniform List<vector> 
128000
(
(-6.90243 -26.1959 9199.71)
(-13.0111 161.615 11391.1)
(-94.7951 362.322 11314.2)
(-70.608 512.781 11938.8)
(-152.407 705.075 12310.3)
(-175.899 796.988 12498.8)
(-228.315 846.22 12382.9)
(-248.799 789.28 11929.2)
(-222.403 706.233 11401.2)
(-195.544 575.2 10867.3)
(-234.58 222.855 12188.9)
(-106.839 -267.485 20657.4)
(87.1128 -288 24846.5)
(183.744 -260.67 27754)
(191.554 -181.345 30704.7)
(169.533 -82.3185 32918.3)
(115.53 52.6866 34450.7)
(33.0964 149.423 34116.9)
(-102.895 141.589 29769.4)
(-179.203 0.94281 23791.9)
(-78.0048 -173.557 21418.3)
(48.0092 -196.546 26079.8)
(182.327 -38.775 33884.1)
(115.651 123.548 36095.4)
(-29.165 163.9 34148.8)
(-147.283 177.572 31548.1)
(-216.65 140.099 28190.7)
(-246.117 2.84455 24895.9)
(-70.4319 -228.77 17129.1)
(479.408 -272.442 10314.4)
(735.509 -265.662 10725.5)
(905.205 -322.67 11531.5)
(1039.02 -331.49 12175.2)
(1098.78 -297.745 12599.2)
(1030.69 -228.213 12580.5)
(907.005 -201.225 12209)
(684.512 -105.931 11688.1)
(487.361 -124.997 10780.8)
(266.17 -39.1475 10751.5)
(99.5967 -12.0786 9620.14)
(-11.1924 -113.975 11372.4)
(183.76 19.2267 12036)
(84.8153 294.643 12689.9)
(138.325 376.803 13803.1)
(61.4155 660.363 14656.8)
(-0.0600256 738.526 14996.9)
(-119.956 798.436 14952.2)
(-242.772 737.541 14113.9)
(-320.353 524.422 13038)
(-300.366 193.704 12213.4)
(-309.115 -232.909 14859)
(-221.408 -416.499 24292.6)
(-22.5349 -341.062 30966.6)
(119.843 -263.024 36037)
(219.722 -160.088 39832)
(272.712 -85.695 42881.3)
(271.289 -21.8941 45096.8)
(245.488 -19.5782 46072.8)
(175.568 -54.6443 45026.6)
(-8.30549 -134.002 38499.1)
(-120.545 -49.5488 37356.4)
(-103.637 192.822 43806.1)
(-70.6481 301.325 46103.6)
(-68.3945 301.342 45851.2)
(-103.46 252.43 43844.9)
(-158.314 172.875 40636.8)
(-226.305 30.7879 36319.6)
(-306.486 -174.092 29971.7)
(-360.364 -360.962 19825.8)
(67.4548 -389.368 12058.5)
(529.372 -422.713 12752.1)
(830.473 -427.27 14123.2)
(1026.6 -292.799 15329)
(1067.41 -141.24 15883.4)
(972.384 -0.095247 15735.5)
(867.843 69.3619 15182.3)
(551.516 174.307 14145.5)
(431.835 105.093 12632.9)
(117.233 218.257 11784.7)
(8.32458 19.8389 10881.5)
(-94.6097 -317.477 11247.7)
(86.5367 -250.476 12665.5)
(87.8083 23.3944 13838.1)
(169.74 185.432 15153.9)
(195.708 385.793 16213.3)
(174.151 496.935 16897.7)
(138.188 591.932 17099.4)
(-45.3674 511.207 16037.1)
(-232.1 351.472 13823.9)
(-318.949 -27.0098 12852)
(-439.944 -392.653 16067.8)
(-407.489 -456.946 23852.8)
(-152.622 -316.686 31748.9)
(71.6565 -233.166 37376.2)
(177.205 -166.345 41172.9)
(239.385 -79.8025 44320.2)
(260.48 -4.95389 47579.2)
(234.979 7.58504 50998.5)
(170.944 8.20783 53870.9)
(96.9127 -12.0477 55480.5)
(-14.2674 141.445 54779)
(-82.1731 228.397 54008.3)
(-73.0092 264.528 52009.6)
(-79.759 264.324 49340.8)
(-129.218 196.697 46521.4)
(-208.004 98.8223 43386.1)
(-288.458 -51.8324 38888.8)
(-392.334 -282.242 32059.3)
(-545.829 -526.311 21780.7)
(-252.428 -473.22 13361.9)
(223.481 -399.375 13335.1)
(616.701 -257.216 15318.9)
(771.336 -12.5028 17637.2)
(818.258 155.83 18168.1)
(688.527 207.423 17849)
(560.865 221.051 16919)
(318.817 203.998 15637.9)
(135.222 92.7103 13973.9)
(-168.867 116.574 12527)
(-246.246 -109.774 10456.7)
(-64.4954 -463.718 11851.8)
(138.149 -325.976 13719.1)
(173.249 -139.64 15118.8)
(249.92 23.9155 16518.4)
(301.89 207.303 17780)
(321.022 310.79 18701.5)
(282.462 410.564 19109.2)
(252.909 372.554 18927.3)
(-139.256 203.237 14837.5)
(-326.564 -75.9259 13423.4)
(-476.582 -363.126 16011.9)
(-561.213 -342.918 21120.5)
(-421.55 -258.158 25371.7)
(-167.055 -165.208 29507.7)
(114.978 -83.8194 33927.9)
(261.931 -40.4663 35686.6)
(284.804 7.68883 38175)
(257.075 38.5338 41610.1)
(184.864 35.5239 45079)
(136.146 25.86 46713.3)
(70.809 157.359 44022.3)
(-12.2436 251.895 43686.4)
(-51.7903 285.585 42241.8)
(-112.941 288.704 40162.3)
(-174.578 239.343 38348)
(-236.682 105.951 36370.8)
(-321.48 -165.626 33565.2)
(-446.977 -473.059 28295.2)
(-581.71 -644.004 21432.3)
(-446.744 -478.319 14404.9)
(46.6907 -336.98 13756.4)
(372.321 -60.8432 16796.5)
(567.628 314.192 20092.7)
(579.253 338.489 20172.4)
(466.651 387.238 19681.2)
(349.511 357.055 18599.6)
(140.631 311.695 17127.5)
(-38.0843 210.074 15429.5)
(-260.229 176.085 13713.1)
(-414.156 -47.081 11330.7)
(-143.764 -656.656 12195.1)
(63.0291 -613.077 14531.6)
(195.962 -335.406 16121.2)
(303.509 -158.887 17730.9)
(392.167 23.2078 19255.4)
(445.556 143.394 20504.9)
(451.108 217.762 21241.3)
(416.761 249.071 21279.8)
(325.722 147.795 20552.9)
(-293.162 -83.1998 13866.7)
(-503.455 -198.744 15420.5)
(-597.061 -105.262 18197.8)
(-597.97 2.80147 20527.1)
(-525.266 64.0352 22375.9)
(-348.354 79.634 22899.5)
(-60.4269 121.308 25424.2)
(180.384 120.251 29189.5)
(260.557 48.3907 31575.6)
(230.924 -2.50489 33392.8)
(234.449 19.003 32575.6)
(195.935 215.668 29653)
(71.0806 245.167 30376.5)
(40.3857 228.859 30432.2)
(43.6685 177.2 29813.3)
(21.8984 -18.9966 28148.2)
(-73.4245 -288.592 25596.4)
(-156.023 -533.759 25420.4)
(-259.921 -668.148 23362.2)
(-408.009 -666.713 19373.4)
(-380.346 -511.262 14609.9)
(-66.5919 -270.662 13069.6)
(238.378 440.943 21238.5)
(373.195 504.006 22147.7)
(334.067 547.955 22214.4)
(260.916 535.688 21477.4)
(131.813 467.087 20116.3)
(-66.8361 367.975 18370.4)
(-253.473 216.248 16449.7)
(-539.148 115.452 14463.5)
(-649.864 -148.569 11706.1)
(-164.566 -745.374 12354.5)
(7.085 -682.635 14820.5)
(175.164 -443.989 16733.9)
(319.156 -262.809 18596.8)
(444.181 -98.7575 20457.3)
(521.499 20.7701 22168)
(563.97 94.7379 23432.6)
(541.499 121.462 24026.5)
(486.442 86.0553 23736.2)
(301.339 -12.7783 22259.3)
(-379.994 -42.3285 16477.1)
(-557.476 56.0106 17200.5)
(-626.548 206.705 18236.5)
(-623.347 266.223 19272.2)
(-583.704 295.27 20058.7)
(-498.49 237.634 20901.6)
(-274.953 157.822 21707)
(18.0811 65.8635 24336.9)
(178.906 -30.3753 25597.7)
(275.796 58.9373 25392.9)
(341.546 203.339 25173)
(248.269 84.6607 23749.6)
(271.519 -113.848 22502.8)
(289.111 -327.315 21141)
(300.551 -526.484 21017.2)
(291.44 -610.215 20835.6)
(186.014 -669.152 20496.8)
(41.8144 -681.803 19415.3)
(-186.784 -640.42 17385)
(-254.111 -454.392 15110.6)
(-56.3427 408.256 21951.3)
(120.169 615.309 23958)
(176.226 658.461 24697.4)
(163.554 677.751 24360.6)
(98.7199 620.41 23156.8)
(-26.773 521.816 21351)
(-199.137 374.198 19243.2)
(-364.688 223.307 17068)
(-633.037 66.9442 14889.5)
(-773.27 -160.539 11979.6)
(-213.748 -793.599 12197.4)
(-112.638 -735.864 14714.2)
(144.346 -535.608 16907.3)
(283.545 -362.042 18961.7)
(448.062 -176.797 21159.7)
(562.27 -57.4128 23403.2)
(642.067 16.7319 25293.2)
(657.027 48.2314 26594)
(614.073 31.4796 27153.5)
(518.291 -31.7846 26901.5)
(293.839 -49.6449 25650.6)
(-246.562 45.5498 21509.2)
(-458.874 118.492 20353.4)
(-577.401 188.566 20224.6)
(-580.445 179.235 20450.9)
(-538.785 132.873 20890.3)
(-462.793 26.1219 21684.1)
(-283.404 -107.516 23479.7)
(31.2343 -111.927 25254.6)
(233.859 69.6707 26140.9)
(335.237 104.748 25910.4)
(186.753 -174.879 22930.6)
(208.184 -430.493 21487.8)
(313.4 -529.644 20624)
(364.755 -580.398 20012.5)
(340.605 -614.213 19555.4)
(274.419 -640.969 19193)
(96.6167 -555.955 18807.8)
(-32.2582 -417.649 18540.3)
(-151.665 325.816 23843.3)
(-79.1477 640.965 26597.9)
(29.7391 748.482 27589.7)
(62.9268 787.923 27436.3)
(53.6546 762.022 26345.5)
(-9.41928 668.693 24491)
(-126.4 529.326 22127.8)
(-276.837 348.116 19598.2)
(-443.796 181.548 17190)
(-723.778 -20.297 14816.4)
(-878.469 -230.1 11977)
(-230.539 -738.572 11712.9)
(-230.197 -666.857 13751.1)
(-51.0667 -442.744 15607.1)
(252.26 -319.588 18751.9)
(415.202 -207.198 21177.6)
(538.879 -88.1612 23986.3)
(655.811 -18.6739 26584.5)
(706.879 12.8627 28624.4)
(701.988 -6.58631 29969.2)
(639.759 -58.0721 30528.6)
(526.026 -133.948 30301.2)
(357.365 -122.368 29267.7)
(22.9416 -90.6788 26663.2)
(-241.839 -73.3894 23813.1)
(-410.634 -77.595 22831.4)
(-477.27 -133.589 22504.9)
(-474.578 -212.847 22930.4)
(-378.871 -244.597 24717.1)
(-160.378 -75.4894 27552)
(95.9567 133.17 27908.7)
(229.79 79.0973 27886.7)
(46.0675 -204.065 25657.9)
(-35.7278 -369.696 23504.3)
(-1.97036 -409.408 22781.7)
(21.8988 -425.989 22482.9)
(33.7631 -391.725 22486.4)
(-28.2569 -265.645 22782.7)
(-111.827 -68.2711 24760)
(-206.127 392.352 28198.6)
(-231.838 649.332 30081.5)
(-126.244 793.031 30880.4)
(-47.6248 850.329 30743.8)
(-3.77718 839.303 29689.9)
(-3.2184 767.366 27793.1)
(-55.5038 633.7 25187.6)
(-155.472 457.694 22149.6)
(-259.45 254.43 19087.2)
(-388.885 86.0838 16145.6)
(-727.111 -111.949 14115.9)
(-901.961 -262.139 11727.7)
(-195.951 -664.989 11180.8)
(-294.987 -436.369 12676)
(-224.545 -278.356 13381)
(-159.508 -148.58 14195.1)
(314.001 -112.193 20438.9)
(480.511 -55.2231 23704.7)
(611.097 -6.06884 27151.9)
(700.488 28.8258 29977.2)
(718.058 9.51417 32160.7)
(687.69 -52.1418 33588.3)
(612.753 -126.557 34234.2)
(497.944 -211.927 34084.7)
(385.156 -249.332 32984.8)
(157.117 -268.274 30300.7)
(-85.4413 -284.374 27848.6)
(-289.749 -305.338 26118)
(-430.149 -319.939 25701.7)
(-418.472 -237.783 27198.9)
(-280.11 34.2032 29525.2)
(-81.7061 120.105 29856)
(74.9984 37.1951 30001)
(-38.3687 -220.306 29834.3)
(-207.274 -279.365 28318.4)
(-239.248 -223.825 27986.8)
(-269.478 -124.071 28283.1)
(-294.844 34.2167 29225.8)
(-322.296 218.905 30951.1)
(-347.182 473.898 33168.8)
(-343.524 619.499 34277.8)
(-243.16 757.666 34684.3)
(-143.403 836.266 34368)
(-51.4972 849.251 33237.5)
(-0.709412 805.427 31288.5)
(7.46807 698.547 28538.3)
(-37.5222 536.766 25092.5)
(-99.1446 317.208 21238.7)
(-128.423 77.4508 17204.3)
(-241.731 -15.5463 14955.5)
(-661.758 -159.291 13253.4)
(-881.483 -301.529 11338)
(-185.383 -526.05 10694.1)
(-270.594 -89.3095 12076.9)
(-300.839 105.336 12782.6)
(-330.473 124.013 13303.3)
(-306.344 102.203 13854.9)
(289.566 29.1336 22215.3)
(512.709 52.6138 26929.8)
(636.975 76.2541 30559.2)
(686.228 68.2704 33605.9)
(669.688 6.72478 35900.3)
(617.591 -80.1842 37436.2)
(538.098 -162.703 38255.5)
(431.536 -247.677 38376.2)
(317.751 -320.542 37616.8)
(139.221 -355.064 35452.8)
(-68.2358 -363.981 33345.8)
(-276.514 -332.901 31848.4)
(-357.834 -172.377 32890.5)
(-315.727 24.9821 34514.1)
(-195.906 33.0089 33596)
(-114.383 1.78267 33590.7)
(-133.144 -137.355 34753.8)
(-256.636 -77.7339 35209.1)
(-333.53 2.85518 35532.1)
(-388.434 134.43 36237.6)
(-403.64 277.713 37304.9)
(-399.145 434.961 38572)
(-358.689 546.197 39022.2)
(-275.412 668.702 38908.9)
(-188.692 758.291 38265.9)
(-84.0251 797.251 36980.5)
(-1.3935 784.094 34966)
(48.9991 706.413 32174.5)
(57.9403 569.595 28543.5)
(18.7441 346.322 24062.2)
(16.6397 20.3111 18325.9)
(33.7633 -93.8342 15737.5)
(-34.9379 -43.1901 14974.2)
(-501.377 -220.15 12227.3)
(-840.295 -319.656 10798.7)
(-221.239 -108.964 12991.5)
(-290.989 313.988 16091.3)
(-425.023 436.394 17053)
(-470.739 362.605 16500.7)
(-504.459 184.331 15595.7)
(-371.767 28.0557 16689)
(291.979 57.344 25754.9)
(522.262 147.497 30369.7)
(610.311 139.356 34278.6)
(616.335 91.4445 37457.6)
(574.167 5.09947 39786.8)
(506.433 -91.16 41402.5)
(426.572 -175.537 42369)
(321.325 -253.504 42705)
(198.458 -312.967 42157.8)
(44.23 -328.895 41131)
(-126.573 -299.648 40028.6)
(-237.952 -155.993 40290.6)
(-241.422 -49.4225 40265.3)
(-207.883 -7.22424 37843.9)
(-160.001 8.81212 38126.9)
(-227.152 -39.8398 40015.5)
(-284.9 27.0054 41701.4)
(-342.566 105.41 42415.5)
(-372.405 221.36 43029.5)
(-367.045 346.712 43662)
(-334.985 456.737 43683.4)
(-273.928 569.547 43214.6)
(-204.198 652.335 42313.2)
(-106.574 711.015 40882)
(-13.2685 720.745 38842.8)
(63.0647 676.489 36075.9)
(113.459 563.998 32515.4)
(94.4663 376.876 27911)
(73.3216 9.0335 21287.5)
(166.244 -225.088 18303.9)
(246.686 -147.953 17820)
(207.074 -129.42 15373.4)
(-225.036 -274.937 11475.2)
(-756.512 -298.647 10199.7)
(-60.8786 320.121 21633.3)
(-176.273 422.088 25236.8)
(-354.428 435.025 24715.5)
(-523.252 317.447 21448.5)
(-575.445 72.0872 18263.3)
(-537.584 -68.6404 17359.6)
(-216 -34.2222 21976.6)
(362.357 134.105 29396.8)
(496.522 221.667 34172.7)
(537.387 171.695 38304.7)
(505.81 99.8049 41424.2)
(451.838 4.32865 43725.5)
(377.898 -82.9437 45362)
(293.335 -159.233 46414.9)
(192.514 -215.198 46918.8)
(76.3171 -237.269 46836.5)
(-47.0796 -223.983 46534.5)
(-144.428 -132.09 46431.9)
(-169.115 -71.1706 45595.9)
(-197.313 -17.8081 42745.5)
(-165.388 4.5907 43219.6)
(-213.321 22.3164 45411.2)
(-243.396 98.5333 47124.3)
(-275.652 169.283 47760.5)
(-288.665 268.925 48118.4)
(-270.726 362.191 47995.2)
(-233.84 457.296 47391.4)
(-177.735 534.887 46353.9)
(-103.182 597.619 44855.6)
(-23.1193 628.051 42821.6)
(56.0315 610.52 40169.7)
(117.7 533.21 36772)
(140.908 391.787 32515.7)
(72.2607 90.9114 26345.5)
(44.0357 -288.637 21295.2)
(175.507 -324.402 21665.3)
(356.746 -247.647 22868.6)
(395.418 -214.371 19721)
(141.474 -269.94 13071.4)
(-566.975 -277.531 9644.66)
(120.837 307.609 25081.5)
(14.8514 351.963 31376.2)
(-104.1 307.902 32201.3)
(-373.059 245.297 25496.4)
(-572.845 -16.2399 20548.8)
(-609.513 -205.591 18392.7)
(-434.119 -101.819 20640.8)
(48.3083 105.435 26970.1)
(386.162 261.933 33138.9)
(431.932 254.377 38459)
(426.406 183.522 42408.5)
(378.343 90.6955 45376)
(323.903 3.46883 47567.6)
(250.54 -71.5923 49141.3)
(174.078 -129.343 50206.5)
(84.0321 -156.549 50731.4)
(-1.793 -157.189 50899.8)
(-78.1392 -106.767 50762.7)
(-106.914 -69.1824 49816.5)
(-152.784 -24.9779 47134.9)
(-146.408 13.0486 47609.2)
(-190.913 43.7183 49746.5)
(-204.656 111.276 51192.6)
(-223.188 174.04 51647.9)
(-220.185 259.244 51643.1)
(-196.123 344.112 51084)
(-157.514 425.893 50118.3)
(-100.593 497.694 48684.7)
(-38.3302 542.79 46776.8)
(32.0677 554.721 44305.4)
(92.0277 509.381 41215.9)
(138.401 407.812 37348.9)
(121.31 207.857 32512.9)
(-0.545987 -153.653 25584)
(-51.767 -360.13 23025.4)
(101.168 -333.783 25352.2)
(283.957 -252.395 29496.4)
(351.393 -229.092 29445.6)
(307.873 -231.75 22091.2)
(-161.817 -262.16 12845.2)
(201.574 277.677 27959)
(147.02 269.115 36238.2)
(100.67 234.326 37611.8)
(-119.283 159.755 29990.2)
(-495.421 -58.4778 22470.1)
(-604.245 -252.634 19468.3)
(-556.034 -166.026 20501.2)
(-214.674 88.5844 24224)
(170.676 281.725 30631.9)
(318.443 326.197 37762.2)
(322.408 260.287 42765.2)
(293.455 167.911 46439.1)
(251.104 79.6337 49150.2)
(195.138 5.9261 51159.7)
(137.893 -50.4847 52610.9)
(67.7937 -79.511 53552.4)
(8.7152 -89.603 54004.1)
(-52.4338 -62.7207 53964)
(-74.5585 -39.0236 53135.9)
(-115.788 -2.18884 50830.8)
(-114.571 36.0966 51231.5)
(-139.555 75.4047 53200.5)
(-140.453 138.681 54369.7)
(-140.015 195.37 54590.2)
(-125.797 269.079 54256.4)
(-96.9687 336.193 53428.3)
(-59.9973 402.67 52178.8)
(-15.2917 452.505 50437.5)
(29.6338 479.534 48207.6)
(67.8209 469.351 45421)
(98.8494 399.436 42045.2)
(99.1696 274.383 37898.3)
(53.9336 26.1212 32499.3)
(-108.892 -234.793 26799.7)
(-170.712 -371.218 24791)
(-11.7695 -285.462 28045.9)
(143.17 -179.297 34464.3)
(158.062 -158.029 37952.7)
(131.34 -152.653 32275.2)
(2.30422 -159.048 21739.4)
(203.905 195.813 30753.3)
(238.845 172.264 39965.3)
(193.748 170.648 41353.6)
(146.571 97.3544 34272.8)
(-310.979 -62.7934 23102.9)
(-569.54 -267.705 20340.3)
(-568.23 -155.878 20747.9)
(-388.451 94.3818 23193.9)
(-63.3268 296.311 28266.6)
(147.642 362.169 35735.2)
(203.159 317.546 42267.1)
(194.575 222.852 46947.3)
(176.436 134.415 50211.8)
(138.531 59.9278 52604.5)
(104.039 1.50163 54352)
(53.5132 -32.4044 55552.5)
(16.2889 -51.3181 56200.2)
(-29.8565 -42.0536 56264.9)
(-46.124 -29.5994 55542.4)
(-79.7772 -5.34242 53525.7)
(-81.9028 26.9733 53870.8)
(-102.318 58.7662 55681)
(-98.1541 110.891 56571.8)
(-93.7157 161.23 56541.6)
(-75.8249 228.585 55999.5)
(-48.2333 295.482 54970.5)
(-15.9715 364.826 53527.7)
(19.4919 422.584 51584.6)
(44.026 456.335 49178.6)
(55.966 442.693 46254.2)
(53.4022 365.855 42856.1)
(30.7318 202.314 38790.8)
(-13.6893 -35.2838 33769.3)
(-182.771 -256.104 28537.8)
(-243.623 -338.684 26564.6)
(-104.628 -182.922 30300)
(45.7608 -66.7647 38285)
(49.6435 -39.8255 44233.7)
(4.74732 -13.4613 39315.6)
(-87.614 -32.6886 28537.6)
(178.518 96.7874 32826.7)
(287.544 99.2917 42957.6)
(252.053 88.4666 44569)
(282.462 60.6053 36136)
(-25.7865 -98.9013 26198)
(-477.187 -191.407 21296.2)
(-534.854 -110.377 21200.7)
(-466.559 146.397 22826.4)
(-265.279 312.826 26567.7)
(-53.7748 372.38 33724)
(53.5175 334.689 41289.5)
(79.0809 248.204 46873.4)
(86.9976 164.618 50727.8)
(67.5472 95.3095 53527.6)
(52.7444 41.0449 55550)
(19.0607 9.15385 56941.3)
(-0.770953 -10.5127 57753.8)
(-32.6096 -7.46489 57932)
(-38.9793 1.65358 57316)
(-58.2639 23.4966 55534.5)
(-52.7834 52.3501 55831.7)
(-56.9497 84.5386 57517.7)
(-40.2168 132.205 58182.5)
(-19.1057 179.692 57983.8)
(12.2427 238.831 57257.6)
(49.3628 296.197 56024.9)
(81.5871 356.096 54351.7)
(101.649 406.941 52149.8)
(87.0929 437.893 49515.1)
(42.148 417.633 46458.9)
(-32.5902 317.172 43229.1)
(-104.923 124.385 39525.3)
(-155.661 -96.0412 35092.9)
(-268.615 -264.342 30328.8)
(-302.925 -282.567 28494.7)
(-179.975 -106.232 33048.4)
(-43.9848 -14.0987 41751.4)
(-13.6208 28.903 48619.4)
(-63.6326 61.8586 43417.2)
(-243.818 -35.3344 32898.4)
(121.155 -32.4466 34137.9)
(280.62 39.309 45110.5)
(268.792 21.68 47857.9)
(296.133 21.9291 38740)
(216.849 -70.6975 30108.6)
(-251.609 -104.701 22126.7)
(-467.793 0.375548 21973.1)
(-472.723 217.445 23204)
(-412.049 326.526 26056)
(-253.65 344.575 32241.7)
(-108.38 305.365 40232)
(-39.3503 235.866 46568.4)
(4.38198 162.572 50874.2)
(9.98083 102.671 53959.2)
(16.6186 51.2746 56174.6)
(0.319837 19.5481 57724.2)
(-4.39107 -4.76848 58634)
(-23.6441 -10.2607 58879.4)
(-22.8424 -10.8481 58299.3)
(-33.8351 -0.718189 56603.5)
(-25.2294 14.8173 56872.5)
(-24.9351 34.0024 58486.2)
(-6.48234 67.4011 58951.1)
(13.6987 106.411 58561.6)
(43.4934 162.541 57637.9)
(76.0188 231.93 56186.1)
(103.168 320.348 54273.9)
(113.652 421.88 51782.3)
(73.1478 504.983 48906.5)
(-14.3913 511.42 45859.5)
(-134.415 393.797 43231.5)
(-235.086 153.691 40486.3)
(-262.393 -71.8063 36742.6)
(-313.499 -238.174 32388.6)
(-319.236 -237.512 30636.3)
(-202.868 -65.6368 35657.4)
(-59.6641 4.29671 45140.1)
(-12.4845 90.579 52370.6)
(-44.2084 122.23 45109.8)
(-362.904 -40.5504 35561.1)
(26.6124 -100.331 33108.7)
(257.241 34.8236 46076)
(246.157 16.1048 51076.3)
(275.395 -6.15811 41832.3)
(282.462 2.40134 31741.8)
(67.0029 -14.9478 24739.9)
(-280.072 108.925 23713.1)
(-388.505 240.21 25054.9)
(-402.377 237.275 27620.9)
(-344.43 187.726 33226.3)
(-218.439 171.679 40369.1)
(-137.065 155.764 46383.7)
(-73.9402 120.452 50683.4)
(-55.5776 86.2672 53884)
(-35.3329 50.7344 56228.5)
(-39.1296 29.2751 57901)
(-32.8379 11.5988 58904.9)
(-41.0947 9.21827 59224.9)
(-32.9667 11.1625 58684.4)
(-33.0066 23.966 57046.8)
(-16.2688 39.8718 57283)
(-2.23415 63.2649 58874.6)
(31.0415 97.2424 59253.3)
(74.45 138.094 58740.8)
(132.724 190.8 57623.7)
(199.047 255.73 55868.3)
(255.736 340.576 53498.8)
(264.862 450.91 50317.2)
(176.145 537.004 46870.4)
(19.8799 499.049 43900.7)
(-199.794 307.7 41908.7)
(-385.066 41.3232 39963.1)
(-391.427 -208.678 37027.6)
(-377.502 -316.778 33302.8)
(-325.476 -236.079 31999.5)
(-220.777 -83.2993 37655.7)
(-75.0578 -16.6535 48141.1)
(15.1855 96.3117 55218.2)
(44.421 114.681 42128.3)
(-399.058 -245.269 32247.8)
(-99.8917 -70.1804 27993.1)
(168.951 49.2674 45377.1)
(186.345 11.6274 53613.1)
(213.789 -8.76338 44508.9)
(268.735 33.4517 32506)
(225.295 38.5739 25523.8)
(97.8819 71.8692 25771.2)
(-155.591 61.0162 28651.1)
(-243.791 -53.9394 30044.1)
(-291.656 3.88475 34753.5)
(-221.384 67.8928 40208.7)
(-162.465 99.9348 45443.8)
(-102.644 81.8396 49683.8)
(-78.3385 62.2437 53008.9)
(-51.0145 29.5874 55478.2)
(-45.3185 11.5841 57254.9)
(-30.6268 -9.40628 58311.9)
(-30.1487 -16.2976 58637.3)
(-15.9544 -24.689 58018.5)
(-10.5005 -25.001 56249.9)
(10.6979 -28.1608 56516.5)
(29.6553 -26.4464 58207.2)
(64.2754 -20.59 58409.4)
(104.618 -6.32624 57641.5)
(158.473 25.8296 56196.7)
(218.986 99.5141 54035.8)
(284.575 243.929 51176.4)
(327.686 449.389 47329.8)
(305.165 532.354 43960.4)
(222.291 412.8 41911)
(74.6854 128.195 40771.7)
(-183.995 -220.569 39309.4)
(-280.503 -405.912 36782)
(-264.661 -378.4 33620.9)
(-235.487 -252.962 32541.1)
(-140.659 -148.321 40763.6)
(27.8637 -127.678 52951.8)
(144.027 -30.9849 53269.6)
(220.767 -124.889 30674.7)
(-48.1816 -388.873 26639.2)
(-93.6373 -5.02268 23324.4)
(-11.7738 114.41 40682.6)
(130.529 1.33471 54934.8)
(175.166 -32.8516 45002.2)
(290.717 -53.8749 30870.5)
(332.953 -110.021 25514.9)
(296.606 -113.127 26484.4)
(140.544 -143.236 28188.5)
(-58.9539 -98.1709 29951.7)
(-159.546 23.9509 33366)
(-190.425 43.1673 37514.3)
(-195.119 59.7621 42404.8)
(-156.199 47.6756 46904.3)
(-130.537 38.037 50637.7)
(-97.0972 15.8284 53454.7)
(-82.4614 6.05114 55471.8)
(-62.371 -7.24357 56679)
(-56.7353 -7.63678 57063.2)
(-42.443 -9.79016 56397.6)
(-34.9478 -3.67577 54463.5)
(-16.3957 0.815986 54739.1)
(3.25666 15.076 56674.9)
(42.5295 32.6991 57023.8)
(105.766 59.6084 56302)
(211.433 99.487 54781.5)
(379.663 155.994 52238.1)
(593.561 210.599 48401.1)
(773.852 143.923 44122.2)
(861.144 -144.006 41631.2)
(816.364 -531.655 40419.4)
(692.893 -852.047 38875.4)
(454.909 -982.322 37045.4)
(224.595 -907.265 35456.2)
(119.468 -704.284 34915.7)
(20.8985 -472.126 37527.1)
(-55.4723 -357.725 46125)
(-15.6947 -226.173 55076.3)
(30.5454 -164.579 55550.7)
(125.23 -188.085 33274.6)
(284.773 -143.328 21029.2)
(-69.0589 111.71 21563.6)
(-95.3367 72.8797 38709)
(-7.9113 -150.131 54346.2)
(70.8822 -167.8 43129.9)
(214.168 -229.761 29101.6)
(367.557 -186.223 24977.9)
(335.571 -34.6285 25305.7)
(226.797 17.9103 27182)
(66.321 61.0524 29693.9)
(-109.63 67.2563 33220.1)
(-156.554 37.2876 37758.7)
(-172.125 41.0353 42893.4)
(-151.986 9.46452 47381.9)
(-131.954 0.158896 51035.7)
(-98.2424 -22.7083 53779.1)
(-78.1202 -27.2728 55750.1)
(-51.8974 -40.7995 56914.7)
(-38.8398 -41.6426 57253.3)
(-19.1511 -52.5411 56534.1)
(-5.62571 -58.7828 54637.9)
(24.0238 -78.6562 54968.4)
(55.9365 -99.0661 56799.1)
(105.193 -142.254 56866.4)
(179.486 -211.57 55699.2)
(299.424 -334.813 53227)
(496.509 -519.695 48872.5)
(830.531 -809.302 43961.5)
(1340.13 -1251.87 42055.3)
(1785.06 -1692.64 41922.5)
(1961.23 -1898.62 41201.9)
(1816.49 -1783.1 40067.4)
(1474.3 -1511.97 39227.1)
(1109.99 -1185.95 39182.6)
(816.554 -803.733 40582.9)
(529.11 -485.512 44341.6)
(278.621 -281.28 50897)
(78.2821 -85.139 57184.2)
(20.7946 -88.0017 57828.7)
(-74.6159 -150.816 38008)
(222.062 80.2804 23304.8)
(19.516 221.897 25554.7)
(-95.1298 -161.044 43056.9)
(-91.2074 -211.218 54095.9)
(-30.5964 -224.559 44231.3)
(51.1819 -208.176 31139.5)
(251.592 3.74741 23728.7)
(182.901 289.501 22553.1)
(8.0346 297.684 24710.3)
(-86.1196 274.33 28925.7)
(-164.818 193.401 34154.8)
(-236.173 80.4148 39644.8)
(-232.963 24.8574 45116.8)
(-204.833 -17.3321 49540.8)
(-169.897 -29.0423 53022.3)
(-132.451 -44.4584 55595.2)
(-106.473 -42.3282 57436.3)
(-81.2522 -47.6642 58538.5)
(-70.0253 -41.5544 58899.5)
(-58.8504 -46.5832 58335.3)
(-59.8504 -46.4234 56649)
(-53.1513 -57.6837 56914.6)
(-55.311 -65.1383 58676.2)
(-63.1134 -96.5161 58940.1)
(-86.0484 -145.112 58242.1)
(-124.286 -239.171 56815.9)
(-190.222 -375.264 54435)
(-247.451 -575.05 50846.1)
(-177.301 -745.784 46448.4)
(176.076 -820.266 42742.7)
(676.17 -667.541 40358.5)
(1119.88 -511.773 39113.2)
(1185.41 -456.719 37923.9)
(1050.24 -386.876 36348.7)
(826.605 -132.028 35194.7)
(580.757 17.9995 36786.7)
(294.229 110.565 44641.7)
(138.632 34.9949 53882.9)
(-30.2898 -47.6946 57741.7)
(-32.6822 -140.807 41782.5)
(150.351 228.284 26131.2)
(184.227 59.9609 33479.4)
(-66.1106 -285.602 45905.3)
(-70.1142 -245.198 52131.9)
(-54.9987 -253.127 42840.5)
(47.9135 -187.796 31406.5)
(283.835 204.104 22435.3)
(254.648 496 21542.2)
(-17.0977 425.467 23414.2)
(-204.763 302.117 28002.3)
(-278.615 107.37 34856.8)
(-290.203 -7.18624 41406.1)
(-260.412 -57.9233 46844.7)
(-214.286 -86.8223 50969.8)
(-169.881 -89.0751 54146.1)
(-124.766 -94.349 56463.5)
(-92.8585 -83.2199 58103.6)
(-62.1898 -81.9741 59057.4)
(-46.0587 -70.391 59317.2)
(-30.1665 -73.355 58696.7)
(-27.1242 -71.7752 57063.5)
(-13.4495 -84.5344 57323.4)
(-3.92626 -88.6931 58992.2)
(0.00282366 -111.666 59218)
(-7.01101 -137.375 58547.9)
(-29.3285 -177.128 57287)
(-91.5497 -213.891 55408.6)
(-208.289 -252.788 52967.2)
(-395.61 -257.337 49632.6)
(-485.594 -223.395 46254.1)
(-387.745 -168.828 43704.7)
(-92.0033 -172.011 42017)
(270.741 -134.782 39397.3)
(542.033 37.5764 36207.1)
(630.529 235.506 32634.6)
(514.921 272.837 31472.4)
(244.482 193.417 38633.7)
(115.85 39.4718 50310)
(-23.7069 -43.9664 56565.3)
(-86.4577 -91.0225 42529.9)
(125.532 280.201 29563.6)
(132.528 -110.646 35949.5)
(-55.9429 -278.849 45695.7)
(-70.6566 -236.208 49350.6)
(-104.24 -257.081 40517)
(62.027 -125.119 30449.7)
(305.466 392.071 21059.8)
(353.592 559.448 20613.8)
(28.6601 438.946 23007.1)
(-217.729 221.359 28285)
(-330.602 19.8096 35530.8)
(-335.31 -83.647 42195.6)
(-288.372 -121.192 47455.4)
(-231.028 -140.162 51362.8)
(-177.574 -132.185 54311.5)
(-129.342 -127.478 56446.9)
(-96.1697 -106.982 57925.3)
(-69.564 -96.9369 58780.3)
(-59.9536 -77.5741 58979.3)
(-54.9385 -74.0666 58341.7)
(-67.333 -67.0343 56653.9)
(-74.2629 -74.378 56902.7)
(-85.7004 -72.4501 58696)
(-108.074 -95.0656 59085.1)
(-141.055 -123.57 58608.9)
(-182.945 -171.664 57591.4)
(-240.712 -223.795 56000.4)
(-303.398 -277.131 53923.2)
(-383.681 -285.334 51172.1)
(-416.222 -213.89 48043.4)
(-341.344 -51.0444 44888.2)
(-146.78 120.533 42295.4)
(25.2715 264.724 39525)
(277.82 343.082 36279.1)
(474.154 437.864 31346.9)
(447.343 459.586 27902)
(203.711 353.584 32482)
(41.1747 181.272 43030.1)
(-46.3054 67.6415 51273.9)
(-95.7509 50.7099 44822.1)
(49.7713 291.792 33088.6)
(-10.9364 -145.184 33847.8)
(-88.0264 -225.985 43591)
(-119.068 -166.546 46318.4)
(-151.929 -204.697 38337.5)
(45.2129 84.4233 27548.1)
(327.656 556.484 20851.4)
(398.529 600.225 19856.7)
(55.4523 446.844 22673.2)
(-239.539 135.522 28548.7)
(-376.315 -98.7486 36161.8)
(-356.879 -188.262 42732.7)
(-295.85 -214.671 47686.3)
(-221.188 -215.166 51319.5)
(-158.149 -195.214 53967.2)
(-102.794 -176.034 55870.2)
(-65.3601 -143.651 57183.4)
(-35.7998 -121.98 57911.6)
(-24.3441 -92.4476 57993.7)
(-16.9952 -80.0312 57239.5)
(-28.4533 -63.2693 55450.5)
(-34.1708 -64.1255 55710.2)
(-41.1248 -51.0438 57627)
(-62.0057 -58.2807 58093.5)
(-91.7671 -64.755 57686.2)
(-136.333 -80.3511 56786.6)
(-199.26 -98.0918 55391.7)
(-275.774 -114.39 53610.4)
(-371.436 -121.643 51342.4)
(-443.919 -97.768 48733.4)
(-452.084 -46.9739 45809.6)
(-330.624 7.99536 42921.1)
(-133.685 55.3798 39624.7)
(114.824 156.969 35440.6)
(384.147 361.051 29400.3)
(468.4 444.862 25591.9)
(256.874 295.57 29009.4)
(44.2831 80.4854 39551.4)
(-33.2667 -19.7553 47829.8)
(-78.9032 -3.19993 42771.3)
(-3.53972 138.159 31317.1)
(-127.19 -152.666 31103.2)
(-145.21 -137.329 40261.5)
(-200.036 -65.1764 42990.9)
(-219.769 -50.2303 36024)
(-62.8218 334.306 25415.8)
(309.151 623.453 20563.7)
(371.261 629.454 19274.8)
(66.9037 409.846 22533.2)
(-268.032 -9.84189 29293.8)
(-384.471 -230.616 37044.4)
(-347.291 -305.525 43193.7)
(-272.532 -300.837 47565.9)
(-191.83 -286.808 50708.4)
(-126.411 -247.592 53071.6)
(-72.2898 -214.384 54780.2)
(-39.0224 -168.698 55935.4)
(-16.2699 -136.144 56540.6)
(-14.9717 -98.1324 56507.7)
(-18.7962 -77.7197 55648.1)
(-45.7086 -54.0181 53678.2)
(-69.7528 -51.6527 53982)
(-86.7368 -34.4766 56085.7)
(-120.233 -41.016 56724)
(-155.506 -48.504 56455.8)
(-201.649 -66.9327 55688.6)
(-252.716 -91.3464 54426)
(-301.244 -115.202 52764.7)
(-347.319 -132.339 50627.4)
(-366.492 -123.14 48110.4)
(-348.667 -88.6939 45151.7)
(-252.092 -26.7663 41858.8)
(-95.8422 37.5441 37927.3)
(134.463 157.956 33155.9)
(365.762 323.898 27036.3)
(471.153 414.964 23545.6)
(356.268 246.445 26211.1)
(148.818 55.2453 34883.4)
(62.8378 -18.0129 42546.6)
(26.7079 -12.0014 38765.3)
(52.196 72.5853 27228.3)
(-185.169 -101.263 27687.2)
(-213.805 11.7715 35767.7)
(-285.967 99.5645 38265.5)
(-320.244 234.981 32885.5)
(-151.404 577.729 25206.9)
(181.157 687.736 20284.1)
(296.335 654.244 18859.7)
(2.23087 294.354 22628)
(-290.431 -169.487 30565)
(-375.631 -385.898 38186.9)
(-310.308 -407.64 43209.2)
(-224.284 -392.487 46892.6)
(-140.119 -354.588 49642.9)
(-71.641 -301.579 51714.1)
(-18.2628 -250.054 53209.3)
(13.9877 -190.763 54183.2)
(34.3949 -143.775 54629)
(33.4324 -93.2514 54431.5)
(30.4477 -60.2501 53382)
(0.0231516 -22.4198 51165.5)
(-26.6955 -18.7851 51530.3)
(-43.3844 4.27052 53901.1)
(-80.6218 9.8954 54692.6)
(-117.267 16.8544 54521)
(-173.355 17.9346 53866.6)
(-236.519 6.3336 52745.4)
(-305.149 -10.0764 51260.5)
(-371.116 -38.6349 49364.6)
(-414.73 -62.9938 47085.8)
(-419.989 -87.8196 44345.1)
(-358.795 -99.6763 41109.4)
(-220.117 -100.31 37157.1)
(27.4186 -48.7313 31613.8)
(332.446 183.508 25176.7)
(488.206 292.061 22017.2)
(439.041 118.491 24707.8)
(271.026 -112.936 31294.4)
(156.714 -209.653 36641.6)
(122.172 -213.9 32001.2)
(145.741 -68.3789 20827.4)
(-212.68 58.6074 23992.5)
(-309.423 231.388 28807)
(-417.351 359.606 30823.5)
(-469.554 543.774 27554.9)
(-288.662 702.779 23062.2)
(13.4995 695.495 19222.1)
(103.545 573.133 18418.2)
(-81.9112 120.741 24131.8)
(-315.494 -431.947 32799.5)
(-329.652 -499.843 38573.2)
(-240.061 -518.148 42688.7)
(-154.267 -468.675 45772.3)
(-67.4365 -415.775 48080.9)
(-3.92916 -340.652 49816.7)
(44.5473 -274.044 51056.2)
(67.7179 -201.755 51818)
(79.53 -144.381 52078.4)
(65.1474 -88.6992 51684.4)
(51.9068 -45.6106 50372.8)
(0.32081 -1.37519 47830.7)
(-51.0625 0.863936 48428.3)