/*--------------------------------*- C++ -*----------------------------------*\
  =========                 |
  \\      /  F ield         | OpenFOAM: The Open Source CFD Toolbox
   \\    /   O peration     | Website:  https://openfoam.org
    \\  /    A nd           | Version:  11
     \\/     M anipulation  |
\*---------------------------------------------------------------------------*/
FoamFile
{
    format      ascii;
    class       volScalarField;
    location    "700";
    object      p;
}
// * * * * * * * * * * * * * * * * * * * * * * * * * * * * * * * * * * * * * //

dimensions      [0 2 -2 0 0 0 0];

internalField   nonuniform List<scalar> 
128000
(
-179794
-178068
-231042
-215368
-285431
-289768
-341614
-349861
-355301
-329303
-288673
-250988
-224489
-205300
-232766
-250170
-279199
-284139
-307168
-286279
-294208
-299055
-284283
-257295
-236392
-227426
-253296
-292040
-340195
-394883
-436316
-461462
-436713
-423973
-346782
-332094
-243486
-238148
-185593
-153718
-181503
-134023
-186909
-172958
-227870
-257251
-313973
-365678
-401435
-404726
-359106
-303155
-260952
-210508
-234145
-254264
-288444
-294321
-326630
-309436
-317047
-324957
-299542
-265450
-238859
-242691
-298990
-362286
-433065
-497799
-530198
-508606
-446100
-381425
-290106
-251851
-166574
-175145
-99522
-122037
-233246
-189248
-196319
-190663
-222762
-245704
-292347
-339258
-390718
-427692
-412266
-347542
-316526
-250707
-274313
-278693
-310168
-304767
-313817
-303267
-311451
-314815
-309532
-286189
-277435
-277193
-356018
-420384
-491990
-547563
-542310
-488750
-412996
-349830
-275870
-240033
-189190
-176871
-153409
-193429
-218400
-174977
-189869
-165001
-199839
-227523
-280304
-341473
-404445
-458249
-480458
-422278
-388414
-315276
-329821
-327136
-341606
-341376
-345717
-341849
-353906
-364229
-373914
-356459
-357984
-352308
-451656
-509937
-586239
-618800
-579674
-498168
-406892
-326692
-237203
-200481
-129991
-145477
-119849
-149466
-288497
-234578
-224303
-203493
-199747
-220104
-253937
-308604
-373068
-441894
-481668
-445223
-432018
-372579
-392964
-366157
-386486
-353790
-354222
-347660
-366473
-384122
-397573
-397279
-406921
-421426
-497909
-550342
-609880
-609793
-552603
-455472
-367430
-285526
-223143
-187850
-162926
-187754
-175561
-237685
-286920
-260998
-246135
-230144
-221832
-234173
-257684
-308614
-356216
-432889
-465883
-476602
-443784
-418003
-426442
-440946
-417074
-400908
-388410
-383126
-400950
-422430
-446807
-456998
-463282
-470705
-520593
-560871
-606666
-588755
-525401
-431172
-345954
-271965
-214464
-190472
-170633
-189234
-187451
-226476
-335479
-315956
-293017
-280722
-254985
-253842
-256621
-286441
-331340
-361249
-449266
-384622
-419835
-378789
-398039
-393110
-401186
-374290
-361625
-362864
-367233
-390969
-409733
-435998
-428966
-451513
-469004
-513866
-528642
-529093
-454895
-382877
-315678
-258222
-229690
-215877
-220209
-246255
-249942
-303986
-333581
-361127
-337250
-342484
-311489
-310269
-294321
-306398
-327537
-353178
-382352
-398304
-360892
-379371
-388117
-398461
-391205
-375689
-370897
-365171
-365892
-382640
-404809
-418059
-414319
-421054
-420079
-447706
-461889
-459443
-406697
-356745
-308691
-271118
-258994
-253122
-270793
-279473
-298058
-319924
-330225
-382101
-381293
-393619
-368302
-343244
-319756
-314735
-316970
-329222
-343386
-359766
-323380
-341754
-324719
-360174
-349256
-354826
-334522
-356343
-333065
-363503
-350114
-376291
-358552
-375543
-359070
-403813
-417889
-411641
-373919
-340166
-312911
-293690
-300930
-303905
-330878
-338967
-361028
-368264
-298272
-373690
-408988
-446596
-434364
-437317
-369179
-348202
-337923
-336661
-338987
-350126
-346349
-342514
-365973
-355398
-368849
-357995
-353705
-352914
-355062
-349999
-364852
-370582
-357545
-366070
-348925
-393873
-385739
-379326
-354194
-332946
-325912
-318176
-340509
-352680
-387970
-385512
-405140
-376803
-253177
-312426
-364486
-433768
-445551
-425354
-411100
-361648
-327719
-321985
-304044
-315735
-301894
-325210
-313607
-348561
-327256
-339198
-316524
-338941
-320960
-346084
-335631
-359936
-348781
-362570
-345731
-377324
-364641
-365644
-348456
-342281
-342901
-349064
-384904
-387921
-425361
-419103
-425870
-380891
-227939
-272177
-317394
-390277
-420433
-445827
-382717
-364490
-362295
-342186
-327078
-316908
-314367
-313596
-325342
-326309
-335552
-328233
-328201
-330817
-335110
-338035
-341895
-347721
-342677
-352128
-349535
-364825
-359746
-354993
-349498
-339300
-354304
-356253
-380851
-396711
-437916
-420402
-421223
-364183
-194910
-217778
-271795
-333884
-386042
-395001
-378297
-331406
-291317
-316006
-290027
-293479
-274229
-287224
-276399
-295322
-285759
-301220
-290661
-312243
-303619
-326421
-319488
-341931
-340127
-361690
-359225
-377708
-369915
-372079
-357141
-358624
-347999
-361171
-386825
-405325
-440773
-419090
-406347
-345178
-203302
-201143
-240593
-306459
-367002
-403931
-377545
-361160
-342205
-338255
-330379
-308944
-302218
-296046
-299740
-298254
-304012
-303267
-307334
-309572
-312471
-317357
-321431
-332703
-341390
-357272
-367603
-377696
-380834
-365782
-363596
-333149
-355622
-340974
-380945
-385505
-415935
-377811
-361983
-310072
-231435
-234763
-264822
-302043
-365072
-399763
-374028
-362094
-306721
-337630
-302651
-297989
-269556
-275290
-262463
-275431
-266013
-280374
-272657
-291160
-286543
-310643
-315078
-346975
-362122
-394494
-403174
-419950
-412489
-405551
-379178
-364476
-350498
-360434
-379059
-377533
-384445
-342387
-332413
-290155
-245486
-252306
-276506
-322118
-359476
-426154
-385749
-382048
-357342
-347912
-349468
-317110
-304840
-292910
-293462
-290111
-292409
-289429
-290834
-289899
-292814
-298822
-309591
-329489
-355978
-386218
-412492
-432015
-440737
-415024
-393535
-361818
-352357
-354517
-369104
-355360
-348029
-294491
-283537
-255741
-260253
-269007
-288923
-312055
-359132
-379462
-375658
-357532
-325178
-334888
-307150
-301257
-270729
-271976
-256178
-264563
-252955
-262688
-253386
-267439
-265155
-291622
-312315
-367605
-418861
-473673
-491838
-507289
-500012
-478253
-431856
-387770
-369300
-363877
-367269
-350197
-339563
-289668
-290896
-249701
-272214
-281778
-292736
-326964
-340688
-385705
-356335
-352549
-346103
-343151
-337695
-315111
-305325
-292512
-290733
-283430
-282513
-275673
-273021
-267907
-267906
-273052
-290199
-326169
-382196
-435871
-486641
-543489
-568868
-509666
-444364
-390343
-362315
-340407
-339966
-322879
-303959
-279157
-259100
-228470
-270314
-288762
-283157
-312196
-327732
-350770
-331547
-340653
-302785
-317067
-291592
-292769
-269657
-270584
-252284
-254334
-237100
-238356
-221326
-224096
-216179
-236710
-279549
-396867
-537405
-624266
-622971
-615807
-608221
-579632
-488402
-403590
-360138
-331905
-328781
-315670
-301505
-287996
-285832
-245624
-261150
-278732
-282468
-328163
-340024
-369666
-357179
-334565
-345636
-331793
-331969
-315408
-309643
-296442
-291127
-280551
-275307
-265755
-257279
-245576
-234934
-229074
-241802
-302897
-399397
-474989
-521707
-579047
-596767
-524536
-427324
-347545
-308959
-291217
-296315
-287537
-268944
-259190
-232219
-189287
-261697
-283915
-286624
-325296
-351357
-379813
-345601
-340721
-297886
-315096
-291674
-295769
-272732
-269857
-249266
-245640
-223448
-213190
-181995
-162709
-129936
-117807
-182061
-379071
-582567
-688711
-655098
-583430
-544380
-489536
-401967
-331249
-298817
-285428
-303352
-293072
-285581
-251434
-241036
-196402
-265697
-294286
-289098
-351763
-376472
-411482
-387061
-365828
-350477
-336152
-332384
-319017
-310479
-297516
-289862
-280544
-272860
-264414
-252469
-243046
-230601
-227834
-246462
-331578
-449421
-528234
-556940
-620100
-592658
-511487
-418155
-349261
-309890
-295303
-305471
-294385
-283133
-249557
-251963
-216956
-240028
-255307
-268724
-336039
-369160
-423600
-389992
-379123
-324343
-329706
-307921
-300871
-278929
-271479
-255293
-252374
-238380
-235703
-222672
-221904
-219840
-239616
-294571
-415983
-566640
-664617
-660741
-585803
-573606
-551236
-467603
-401285
-366779
-343135
-352779
-328768
-314501
-257929
-245255
-221965
-218271
-227543
-251673
-330807
-376546
-430663
-413973
-389980
-355202
-343276
-336833
-319315
-305531
-294660
-286933
-281720
-275324
-272429
-265371
-266183
-264014
-276149
-293553
-339660
-396631
-457910
-489194
-539840
-532037
-470712
-415927
-386202
-356826
-349666
-356551
-333090
-314084
-255622
-238597
-207814
-194681
-201737
-232122
-317584
-381482
-435392
-404804
-380984
-329863
-315941
-314378
-293300
-279808
-271402
-262229
-261199
-255566
-257502
-255487
-262233
-270356
-291121
-321803
-371700
-430087
-476269
-496332
-482690
-477056
-446499
-418655
-366605
-377573
-368391
-387398
-365752
-350796
-273512
-256723
-234064
-214281
-246391
-286596
-364395
-417998
-449523
-425875
-383638
-343030
-330902
-319635
-306387
-294439
-287999
-281772
-280984
-276647
-277998
-273445
-279140
-278018
-290968
-299036
-324542
-347113
-380381
-396634
-417373
-411087
-396461
-362081
-356675
-332075
-351064
-372154
-364701
-357152
-299860
-279865
-244117
-239915
-296581
-349567
-450102
-495987
-513816
-464283
-400059
-334281
-314886
-303687
-287413
-276794
-271008
-267716
-268502
-268089
-270937
-272475
-279738
-287810
-301048
-317532
-337650
-362248
-380983
-398242
-397200
-402690
-383340
-380906
-343306
-365177
-365660
-402928
-410110
-422031
-362994
-334321
-283351
-287917
-369716
-429141
-517109
-551101
-547228
-497671
-403723
-372688
-353435
-320033
-302613
-287434
-285758
-280232
-283752
-280412
-283470
-278671
-286209
-283503
-296001
-298165
-312114
-319946
-334995
-342808
-353643
-355357
-352759
-348467
-344966
-357180
-348286
-402559
-406521
-436433
-394113
-369299
-307107
-333591
-432704
-488587
-578245
-588987
-576969
-509221
-436800
-376853
-337040
-304811
-288765
-280423
-276931
-279367
-281180
-282321
-283315
-284600
-288162
-296609
-303282
-313704
-318771
-331641
-335843
-348210
-346138
-357753
-349815
-358338
-347425
-374328
-379753
-414921
-431615
-458021
-427253
-410307
-344357
-385287
-485868
-523167
-581447
-563527
-539943
-472199
-399226
-356538
-326959
-302594
-297626
-286150
-295467
-291216
-299583
-297611
-301904
-296879
-298549
-296385
-304884
-304686
-310002
-312074
-313186
-314308
-320710
-325269
-327697
-330904
-326206
-345596
-346783
-397580
-398528
-439387
-419079
-419684
-361470
-411818
-488588
-486918
-516982
-483356
-458426
-398351
-358829
-326752
-308783
-297482
-296046
-297504
-294121
-305293
-308485
-310695
-307846
-308953
-310042
-319012
-306132
-317687
-316219
-328862
-324401
-331142
-319928
-338222
-334807
-338642
-325413
-338981
-335085
-366221
-377112
-405169
-398723
-411337
-375028
-416687
-442814
-421724
-424659
-386965
-368073
-326884
-308086
-295602
-297997
-299096
-311316
-293725
-319032
-314411
-320918
-317246
-319333
-317219
-323294
-317023
-314187
-317481
-319194
-320736
-312101
-309181
-307710
-315307
-333288
-329922
-310050
-309836
-294449
-312871
-312662
-341297
-341834
-362287
-359192
-378998
-371499
-342105
-336012
-302149
-289590
-269587
-275065
-283179
-302194
-310707
-315775
-312608
-312015
-318960
-324316
-319827
-319590
-311629
-325976
-324260
-316349
-334173
-332254
-346689
-339160
-338540
-326317
-338160
-350318
-353206
-323579
-311461
-284525
-284865
-278674
-295340
-297617
-313966
-330011
-353383
-299542
-280894
-257037
-230558
-226688
-225526
-249613
-275482
-302026
-326313
-313642
-317949
-326084
-331287
-327106
-324689
-311957
-314839
-306745
-321417
-323196
-337995
-344132
-356209
-352155
-355550
-346030
-361881
-356529
-379389
-327680
-306256
-264858
-249657
-237371
-241060
-258335
-259251
-301402
-273440
-219330
-216273
-185461
-183881
-187937
-214814
-255794
-294030
-346218
-343894
-356209
-351414
-354269
-346474
-344519
-326706
-323202
-319067
-315649
-335435
-337574
-351870
-355367
-383123
-376977
-383300
-370739
-401579
-407862
-420194
-375189
-329724
-284896
-245385
-226946
-212739
-223796
-220735
-250177
-263019
-187761
-191399
-154945
-161514
-176007
-214211
-259154
-315792
-348885
-368982
-361587
-358866
-339722
-329446
-313536
-312318
-301098
-305120
-293148
-319974
-328848
-342972
-343968
-358613
-357270
-371982
-365581
-400523
-412639
-431259
-396694
-345257
-292093
-247253
-217690
-195409
-214454
-199731
-247084
-174660
-120582
-147522
-107067
-157843
-175292
-237714
-291934
-346096
-388581
-395393
-396027
-369984
-333267
-309782
-302492
-295535
-300407
-299019
-292368
-307631
-311722
-323914
-319176
-329658
-316339
-327074
-321888
-379019
-402411
-438454
-418623
-376950
-329299
-268304
-241870
-185369
-191978
-172014
-186967
-191950
-140587
-153472
-138989
-187678
-202707
-262700
-297865
-351948
-380120
-384623
-370210
-332700
-294273
-274030
-267072
-272604
-279170
-283922
-273074
-280000
-288450
-300106
-297859
-299050
-286185
-284512
-275065
-324148
-353637
-400122
-406181
-371913
-336892
-287353
-259911
-223214
-211546
-191901
-222072
-130186
-77814.1
-140284
-120438
-194038
-210480
-281465
-325168
-372412
-388551
-372621
-351037
-309111
-283776
-251687
-255346
-257395
-283269
-298880
-284369
-274937
-283673
-289676
-284212
-278601
-260322
-247198
-232056
-277381
-314429
-360842
-397051
-391280
-366998
-310415
-284793
-215872
-219659
-157390
-166240
-130889
-131565
-191663
-173832
-258522
-252798
-324920
-327509
-356671
-340543
-325375
-300820
-273695
-255336
-238660
-237171
-251481
-268546
-282067
-266676
-272164
-271763
-282556
-279289
-271256
-261209
-242613
-228988
-243380
-270588
-298215
-339064
-349480
-367411
-329413
-330994
-270929
-265461
-229374
-197663
-675367
-677175
-712558
-717235
-770887
-791691
-833146
-840770
-826212
-764710
-663362
-532375
-362941
-177556
-276234
-382138
-460248
-490936
-526357
-520237
-544695
-502458
-349065
-164048
-25615.3
-87442.2
-369748
-589949
-751338
-874053
-955196
-994489
-982256
-960328
-896168
-863414
-795007
-776430
-738624
-717860
-676275
-651378
-683341
-687860
-735120
-773766
-828873
-877236
-903332
-881181
-788694
-647877
-448699
-177033
-271604
-385209
-433207
-424648
-427922
-414473
-427593
-392747
-331424
-235599
-61740
-83453.7
-464228
-723011
-895829
-1.01137e+06
-1.06603e+06
-1.05604e+06
-1.00262e+06
-938755
-858481
-810845
-744496
-734900
-688937
-699617
-708383
-682157
-689080
-695615
-729964
-765901
-818400
-871306
-921542
-940779
-881645
-741796
-546406
-264834
-396934
-453895
-475643
-414537
-343820
-277829
-278852
-342790
-377972
-355552
-253028
-158577
-541011
-818041
-988051
-1.08315e+06
-1.09639e+06
-1.05232e+06
-982622
-916348
-845284
-800446
-753167
-734500
-716921
-740652
-709950
-683575
-692339
-685281
-716776
-751457
-805661
-866339
-928548
-975660
-954850
-833408
-652439
-460722
-595931
-589718
-536455
-459229
-378333
-342012
-384061
-449313
-561187
-621231
-593934
-405222
-634626
-914090
-1.07083e+06
-1.13108e+06
-1.11299e+06
-1.04394e+06
-965404
-893433
-818526
-777367
-724330
-723729
-707763
-728364
-758950
-729176
-723811
-714549
-719025
-742063
-778609
-829097
-885340
-945707
-941419
-854589
-718474
-656425
-759586
-714623
-618602
-535054
-487583
-478742
-518370
-584003
-694108
-786279
-819281
-698004
-706061
-952049
-1.0744e+06
-1.10155e+06
-1.06454e+06
-987932
-920306
-858014
-807789
-775919
-753013
-761347
-753682
-790817
-770652
-760865
-753582
-742629
-736385
-745442
-766027
-803446
-837475
-887264
-920827
-853956
-748469
-796440
-871358
-830693
-729438
-642581
-580461
-565876
-604731
-679831
-772830
-873652
-944191
-910507
-773773
-960034
-1.04242e+06
-1.0492e+06
-995607
-932452
-883749
-842334
-808194
-791478
-777236
-785018
-782167
-804830
-803113
-808283
-799168
-787518
-762995
-753251
-751025
-766038
-782414
-775758
-800148
-741568
-733699
-810599
-871373
-822071
-746557
-649099
-580315
-567568
-606067
-690505
-783082
-887313
-958007
-983714
-818676
-914335
-944104
-929805
-887512
-866393
-853725
-840068
-833975
-829898
-832535
-844626
-841586
-864446
-796763
-844834
-842509
-839141
-803250
-780166
-755657
-755756
-758105
-746267
-724663
-697270
-654823
-752641
-791239
-767569
-700454
-618701
-546896
-536560
-565991
-644190
-740720
-831942
-900693
-931638
-827596
-816524
-807115
-810490
-819827
-843050
-860938
-869053
-877129
-879176
-890186
-890991
-890659
-885489
-768179
-852473
-879738
-885957
-843709
-790398
-742162
-727513
-722514
-707358
-671768
-618585
-528025
-594700
-609852
-629690
-590706
-538492
-465191
-479835
-502426
-562945
-609305
-675297
-710704
-743575
-689127
-652345
-679889
-742309
-801279
-854462
-891678
-910275
-926076
-931029
-947368
-944292
-938356
-911171
-696025
-811613
-881402
-921149
-896129
-839217
-731640
-696854
-689731
-679488
-652188
-603859
-526536
-475627
-487733
-501482
-496056
-442560
-388937
-406169
-460718
-491619
-521811
-542404
-541031
-537057
-496852
-578471
-659873
-753616
-829031
-887617
-928518
-942598
-956110
-962681
-984166
-968606
-954574
-897008
-589298
-702377
-793505
-869360
-867157
-840253
-719213
-644134
-617831
-615924
-597318
-569878
-488597
-417873
-339806
-340173
-315562
-283940
-251859
-329423
-383877
-420577
-408636
-424325
-422135
-449554
-495186
-609280
-702239
-799204
-868974
-921585
-948810
-950108
-957414
-959376
-958713
-944016
-929333
-859641
-467310
-567096
-658422
-751134
-785117
-789434
-694797
-602221
-563097
-554010
-551580
-551448
-511607
-433878
-333257
-232658
-178298
-147007
-195379
-303592
-362262
-369900
-361395
-381315
-419269
-493296
-572660
-675344
-760843
-837282
-894413
-924204
-933694
-903266
-906065
-859400
-870119
-872653
-867301
-792839
-295452
-341097
-428373
-537694
-637273
-701505
-709943
-622556
-453058
-452806
-435163
-474049
-471524
-444292
-363366
-274103
-172224
-152320
-214449
-317969
-345443
-359659
-361565
-419494
-478785
-565372
-641097
-732659
-801431
-864723
-897385
-910069
-867805
-815433
-785855
-769724
-776624
-776337
-777276
-702886
-271140
-258837
-354303
-545874
-717888
-825999
-821399
-727224
-564842
-424563
-365372
-388684
-433367
-443149
-418782
-366699
-298995
-269957
-307011
-361228
-381691
-390472
-414947
-467237
-529242
-604189
-677310
-752104
-815191
-854432
-875905
-846029
-789947
-746402
-740319
-655544
-624536
-600939
-627303
-575624
-388295
-375831
-443009
-576176
-718976
-828214
-826353
-739337
-563328
-430467
-275222
-262437
-320309
-381280
-389713
-383352
-347562
-339611
-348289
-388829
-399329
-417046
-437400
-495574
-552827
-629322
-695012
-768938
-821055
-855366
-847064
-805214
-701647
-742273
-774681
-666914
-473398
-345792
-408597
-424869
-428628
-416484
-454243
-540096
-655540
-768595
-769611
-712198
-588771
-456957
-292874
-172824
-228427
-320598
-378037
-394318
-393206
-386520
-393876
-406937
-408124
-407274
-422873
-460624
-514322
-586166
-665155
-747251
-812632
-830468
-810314
-741592
-634208
-709785
-788448
-737664
-523915
-211141
-139596
-232704
-449037
-406354
-418891
-451569
-549039
-646871
-678903
-633267
-536165
-436285
-261265
-112952
-116541
-234814
-312638
-361517
-366684
-374435
-369185
-378429
-368041
-368373
-373439
-414285
-475129
-570584
-659167
-753121
-818281
-831414
-775993
-668083
-581036
-659176
-751287
-726782
-533110
-198151
-45889.5
-16163.7
-448177
-366593
-340971
-377673
-481298
-584736
-594621
-564170
-497897
-400368
-250709
-100205
-102566
-206761
-302695
-354213
-376099
-375444
-365416
-349172
-322429
-284223
-252391
-255380
-329203
-461914
-599751
-741950
-837778
-813153
-724110
-597893
-530997
-581720
-664692
-633831
-425213
-143840
-68320.7
81288.1
-429335
-322706
-253118
-308704
-443518
-523662
-527736
-498976
-421450
-347475
-225887
-158921
-168866
-239529
-295395
-340908
-343535
-335369
-302344
-283540
-228325
-152895
-92967
-136846
-323983
-532064
-646234
-746382
-811102
-811987
-696476
-565276
-508931
-539133
-611798
-550269
-230386
-110644
-223570
-48008.5
-429967
-306819
-215057
-325163
-463794
-541647
-548858
-497430
-464460
-391970
-324090
-274716
-271489
-293168
-330857
-358112
-365534
-348252
-310596
-265576
-172895
17528.8
180342
117594
-141627
-395169
-567956
-709507
-778016
-724934
-610314
-509042
-475207
-504102
-557386
-428642
-48924.5
-8942.81
-210971
-160860
-472091
-349517
-247385
-384123
-523818
-607338
-608137
-557741
-463170
-422042
-344301
-297681
-268912
-289086
-313226
-341029
-325124
-288891
-220074
-151367
73569
408660
416414
9420.62
-382369
-609232
-675337
-682468
-681272
-634522
-541280
-468213
-460876
-514032
-579441
-472449
-149745
61535
-143150
-172454
-379647
-318829
-274159
-495275
-633166
-712806
-722115
-657994
-556228
-458894
-369347
-297760
-277418
-297974
-333454
-355898
-355783
-330157
-283434
-240392
-129569
95073.1
260590
144380
-157776
-411783
-568933
-708861
-713045
-644447
-537462
-460738
-463020
-549221
-651864
-631931
-345534
-26542.5
-110692
-114944
-146711
-206918
-278473
-569018
-743434
-828806
-821342
-755601
-597393
-482702
-352304
-277745
-266118
-303803
-337890
-358907
-351937
-335324
-302492
-282702
-230121
-136181
-63287.9
-110232
-325701
-565196
-692385
-697811
-699553
-702342
-589539
-498235
-519771
-645809
-772917
-777003
-505638
-105601
-66127.4
4566.06
79226.9
-17962.4
-202911
-576941
-812737
-922095
-925648
-847837
-668949
-512415
-381959
-317542
-331485
-372492
-402164
-413988
-408723
-395895
-376682
-371437
-349941
-309658
-271647
-277111
-357914
-504535
-634311
-748827
-787559
-726775
-587517
-491935
-532397
-705658
-823981
-816756
-602734
-189604
-28750.3
27356.9
114900
125418
-21771.3
-416099
-751622
-930637
-959270
-892651
-694256
-502562
-388786
-361113
-385541
-418966
-434910
-439054
-429155
-421185
-414042
-421535
-422092
-418574
-427139
-462488
-528408
-619717
-704368
-758423
-792526
-767840
-679599
-514496
-571483
-748518
-847351
-785382
-540638
-173576
-81355.3
-160986
-145120
-164024
-185935
-321613
-544815
-768791
-893616
-874350
-709642
-509011
-433471
-441773
-471565
-491599
-493637
-485093
-468084
-456625
-450066
-463176
-466442
-470186
-482566
-519254
-566412
-634285
-697816
-760481
-790376
-783593
-719367
-591875
-569571
-710812
-741931
-614295
-419119
-286614
-334571
-347907
-421291
-533468
-612619
-711273
-754613
-776238
-775031
-753637
-647721
-501976
-489495
-510726
-531185
-533856
-519939
-498269
-473114
-456583
-452774
-472170
-487761
-495200
-522413
-564909
-616880
-671621
-728196
-772081
-810648
-813980
-794663
-690332
-628690
-676805
-681759
-631997
-621717
-590909
-579924
-516571
-624201
-764948
-857299
-942880
-965941
-949193
-904143
-792328
-681964
-599799
-588495
-599521
-597107
-581141
-547154
-509821
-467757
-436889
-415055
-447410
-468299
-481618
-504753
-547564
-591760
-644085
-694715
-747074
-790423
-819284
-828159
-801248
-764641
-709021
-746308
-746978
-776039
-758534
-730896
-641785
-768208
-913446
-996522
-1.06722e+06
-1.06024e+06
-1.01852e+06
-970212
-809627
-709979
-664217
-654811
-650439
-629358
-591317
-541487
-483374
-424546
-369246
-342941
-392147
-435387
-456050
-489578
-528071
-573889
-617186
-669994
-717600
-774973
-815594
-853760
-858088
-862784
-861351
-866240
-843794
-876155
-867717
-837989
-744975
-875347
-1.00486e+06
-1.05993e+06
-1.10007e+06
-1.08065e+06
-1.02599e+06
-932310
-807025
-747790
-723658
-708046
-689088
-643873
-593288
-522723
-455245
-382721
-345574
-337353
-386336
-413159
-429457
-455526
-485271
-515478
-548540
-591283
-646275
-708103
-770410
-824445
-856377
-882060
-890020
-919515
-934035
-940505
-920352
-896129
-812390
-933006
-1.02539e+06
-1.04428e+06
-1.06101e+06
-1.01981e+06
-965065
-881575
-811974
-774129
-754721
-730718
-694113
-638869
-571961
-508671
-441324
-405557
-386435
-400869
-423173
-438363
-434389
-460281
-474453
-496828
-503319
-522610
-561377
-635327
-712938
-785750
-832257
-874572
-889744
-915961
-929348
-951372
-935888
-917784
-855183
-946777
-988570
-983588
-977572
-934763
-892700
-835526
-799844
-778589
-763669
-733401
-692747
-620141
-579496
-519896
-488265
-465600
-460270
-465452
-476403
-473419
-464247
-470243
-482549
-503435
-511888
-513065
-497847
-523329
-629737
-715571
-775033
-825316
-845507
-871629
-879350
-898754
-893312
-888744
-859032
-915675
-920187
-902693
-889718
-853458
-825213
-794640
-784350
-775768
-763280
-728202
-677800
-625780
-614310
-588650
-555470
-521363
-503161
-497200
-509340
-484610
-465907
-485782
-514209
-570241
-616310
-651847
-634150
-554104
-601646
-675195
-730899
-782121
-803636
-824632
-831040
-843558
-842035
-842724
-838026
-877649
-844806
-829220
-807347
-780942
-766937
-757240
-762598
-761688
-746188
-716675
-672466
-677084
-706023
-688567
-634325
-574811
-523514
-513161
-494127
-471779
-464497
-502735
-570624
-661168
-736129
-781503
-744057
-631802
-654672
-689887
-705956
-742871
-755869
-769198
-773549
-779817
-789264
-786704
-806377
-805698
-765403
-757232
-733585
-726861
-725828
-739948
-760331
-772375
-785347
-770980
-724936
-695887
-751525
-741215
-680746
-590656
-522334
-497220
-481240
-470315
-466156
-509067
-594271
-721270
-805690
-843995
-768328
-679555
-733763
-757369
-749963
-750672
-748305
-740935
-738245
-733365
-740282
-738824
-758632
-770940
-718243
-714140
-690842
-695198
-707422
-735420
-764694
-793537
-799090
-767589
-719503
-652832
-657692
-678920
-615406
-527081
-448140
-408946
-396120
-413298
-413087
-464151
-555987
-672231
-779948
-798273
-692551
-689642
-763977
-808215
-794481
-773816
-751655
-730033
-714445
-701336
-711026
-704615
-735846
-700487
-659759
-669230
-648518
-682382
-703336
-751552
-792748
-827168
-835402
-781613
-726475
-603300
-500048
-526466
-517007
-469985
-418778
-357802
-298848
-294631
-309146
-401947
-508720
-605827
-657405
-654175
-542208
-666501
-765400
-833045
-838324
-810658
-780176
-740047
-718427
-682407
-682396
-672147
-687137
-691899
-655118
-660301
-657504
-694959
-718943
-769127
-802695
-836685
-831091
-785757
-705615
-552918
-357490
-306940
-333470
-351827
-339079
-293808
-238433
-241036
-292342
-394016
-484044
-540428
-542900
-499378
-396133
-596656
-713211
-801766
-833297
-816483
-789494
-751560
-725419
-696675
-685027
-673018
-693710
-648747
-616231
-649076
-646456
-698476
-723612
-778952
-814462
-839085
-823993
-768332
-683100
-546311
-343582
-168707
-183764
-255741
-344251
-384422
-344007
-272504
-299050
-375086
-441175
-480937
-477966
-413336
-318848
-520122
-644875
-741339
-804426
-817385
-802771
-762772
-737451
-691257
-686882
-652227
-659061
-644516
-643159
-678761
-678350
-735270
-746012
-794344
-797115
-798872
-756933
-695307
-606426
-487832
-341301
-150931
-42389.2
-116785
-306813
-447383
-472321
-416673
-387113
-415809
-462294
-475104
-461064
-408264
-319566
-449466
-558739
-646335
-721916
-760782
-784374
-765437
-760333
-721109
-712369
-689516
-673320
-672706
-674254
-707525
-706437
-750561
-760135
-787833
-782823
-758130
-693866
-601491
-502871
-405500
-292466
-369985
-400567
-437907
-450364
-473092
-450644
-463932
-445079
-363555
-281568
-220094
-230204
-390781
-524330
-654180
-771094
-858674
-910209
-914256
-908762
-862081
-844403
-789485
-780841
-748469
-730695
-671751
-646779
-676749
-676540
-715358
-743427
-786176
-821854
-836546
-808176
-719351
-606669
-490228
-308209
-370437
-402314
-423642
-419235
-431473
-415962
-426744
-401568
-358543
-318578
-250540
-261809
-496593
-652217
-796817
-912133
-976477
-979447
-941101
-892728
-828423
-795258
-741941
-740986
-700117
-713754
-701555
-675159
-679947
-681228
-707298
-732504
-771690
-809853
-844716
-853872
-796252
-685033
-579498
-385908
-462022
-452005
-467771
-434398
-401133
-363917
-363471
-394668
-397174
-384073
-376603
-337944
-586114
-744436
-882093
-979335
-1.00433e+06
-975070
-921696
-871601
-816929
-786448
-751655
-741783
-728959
-755961
-696755
-671256
-677275
-665595
-689956
-715849
-759310
-806958
-853990
-888347
-871322
-778985
-674593
-525401
-588915
-550387
-521293
-480914
-434380
-414401
-444312
-477575
-540638
-568615
-593239
-516339
-692032
-861118
-977485
-1.04017e+06
-1.03182e+06
-976273
-912012
-853506
-792341
-763155
-721317
-728535
-717657
-739774
-736217
-708179
-700066
-687310
-687394
-704494
-734040
-775798
-819815
-871323
-866874
-810675
-725701
-654512
-691387
-643220
-587372
-533967
-500896
-493877
-523964
-569193
-639110
-687212
-726936
-704370
-754738
-922157
-1.00157e+06
-1.02959e+06
-1.00263e+06
-935607
-877682
-824073
-782784
-759820
-745127
-759833
-756292
-793016
-737323
-729673
-719404
-706949
-699258
-705932
-723333
-756865
-787493
-831567
-863404
-825400
-741293
-740774
-762365
-731585
-665441
-607638
-559655
-547557
-577290
-632754
-697941
-761391
-809452
-833112
-786287
-938322
-987161
-998952
-955474
-898337
-851733
-812583
-782570
-770814
-761917
-774017
-774143
-795096
-757537
-765803
-752774
-742446
-720563
-712536
-710582
-724783
-742793
-743035
-776740
-730135
-707180
-725286
-746277
-711001
-666521
-600371
-553936
-547819
-574904
-634233
-700584
-771723
-810171
-858231
-777379
-886887
-908815
-909506
-872535
-846982
-827758
-810547
-803891
-801331
-805851
-819364
-819127
-838494
-741257
-791624
-783260
-783096
-754819
-738810
-717971
-718284
-721715
-718140
-710896
-698545
-634465
-681852
-689877
-672767
-627009
-573328
-527403
-524570
-545560
-602056
-671455
-733206
-773109
-805806
-755507
-799407
-807153
-817684
-817967
-825794
-831342
-832698
-837839
-838983
-848851
-849190
-852378
-843554
-706585
-790968
-808103
-817866
-786471
-750173
-711706
-697151
-686662
-672801
-648697
-621577
-536682
-573190
-561595
-572295
-539686
-508761
-461012
-480419
-494773
-543396
-575659
-627211
-649978
-683100
-659523
-676143
-712550
-757012
-793046
-826128
-850367
-862681
-875662
-878300
-889935
-884959
-884387
-853027
-636810
-748091
-804143
-843372
-832356
-797212
-713389
-681971
-662436
-644878
-620375
-591386
-535978
-499525
-500059
-491256
-479240
-443344
-410485
-423714
-459546
-486589
-521569
-547327
-553595
-564695
-540318
-624469
-684547
-750337
-801757
-842846
-873899
-884720
-897820
-900101
-916705
-898704
-889525
-826509
-546122
-648828
-723310
-799530
-805015
-798950
-713656
-652464
-609493
-591403
-561729
-539144
-479608
-443296
-390373
-388167
-360609
-339636
-310766
-360409
-389751
-428148
-435565
-466795
-477769
-510689
-543234
-631050
-695817
-768425
-820383
-861527
-884849
-888391
-900137
-904820
-900495
-877078
-859272
-779767
-467660
-558215
-636090
-726229
-760597