/*--------------------------------*- C++ -*----------------------------------*\
  =========                 |
  \\      /  F ield         | OpenFOAM: The Open Source CFD Toolbox
   \\    /   O peration     | Website:  https://openfoam.org
    \\  /    A nd           | Version:  11
     \\/     M anipulation  |
\*---------------------------------------------------------------------------*/
FoamFile
{
    format      ascii;
    class       surfaceScalarField;
    location    "700";
    object      phi;
}
// * * * * * * * * * * * * * * * * * * * * * * * * * * * * * * * * * * * * * //

dimensions      [0 3 -1 0 0 0 0];

internalField   nonuniform List<scalar> 
376000
(
-0.00207903
0.000459933
2.43041
0.0907993
-0.0978295
6.11627
0.162481
-0.078024
9.12825
0.303847
-0.150399
12.5935
0.479626
-0.185268
16.1864
0.669192
-0.201316
19.6335
0.856216
-0.199092
22.8879
1.00153
-0.159232
25.717
1.06555
-0.0798443
27.9022
1.02341
0.024112
29.4141
0.908761
0.0941715
30.4021
0.74056
0.146678
30.7247
0.464637
0.273987
31.9055
0.146911
0.369932
44.3232
-0.0118888
0.177105
57.8885
-0.00566664
-0.0037331
64.9791
0.101341
-0.111234
70.4593
0.234021
-0.138879
71.9961
0.252504
-0.0285374
66.6537
-0.0302394
0.268098
58.2556
-0.396645
0.340653
56.5489
-0.498891
0.0843024
64.9963
-0.456982
-0.0341939
70.1973
-0.435423
0.013247
67.4911
-0.546166
0.176522
56.8762
-0.793373
0.305732
42.1606
-1.05531
0.250743
34.6514
-1.24678
0.164795
34.3732
-1.37623
0.105171
34.2491
-1.43678
0.0399987
33.3972
-1.4062
-0.0479231
31.9742
-1.2751
-0.145049
29.9762
-1.0764
-0.211536
27.301
-0.848727
-0.238861
24.1212
-0.617196
-0.243208
20.5965
-0.413493
-0.213435
16.8837
-0.235701
-0.187417
13.1289
-0.140551
-0.102518
9.40906
-0.0337344
-0.11219
6.21693
-0.036882
2.90631
-0.0949001
0.0905663
6.10508
-0.1006
-0.100693
9.59333
-0.0299767
-0.158963
13.3242
0.0587494
-0.252791
17.5152
0.228569
-0.369797
21.9359
0.434965
-0.424269
25.9931
0.678811
-0.460051
29.8405
0.923072
-0.421042
33.1256
1.11448
-0.290245
35.5302
1.15869
-0.0414892
36.8015
1.03159
0.196647
37.2518
0.75948
0.390815
36.6925
0.384878
0.644939
36.8807
0.0710823
0.75093
53.771
-0.128157
0.397793
73.4956
-0.233098
0.101428
80.8328
-0.247471
-0.0935865
84.4595
-0.233824
-0.144505
86.1173
-0.151859
-0.0970041
82.3837
-0.0412187
0.170556
65.352
0.0969747
0.211045
60.8795
0.177362
0.0221428
77.2944
0.111492
0.0442654
84.1132
-0.0349085
0.170056
84.8048
-0.254638
0.451431
77.2697
-0.594074
0.734171
54.9962
-1.02587
0.672971
40.4994
-1.34774
0.454273
40.9649
-1.51623
0.246998
41.7321
-1.53334
0.036345
41.3397
-1.39459
-0.20342
40.056
-1.1502
-0.404865
37.9419
-0.869818
-0.507766
35.056
-0.589908
-0.53485
31.4914
-0.345107
-0.504802
27.3893
-0.142057
-0.431855
23.011
-0.0229282
-0.321459
18.4577
0.0672173
-0.204862
13.8512
0.0910052
-0.146162
9.92658
0.0478087
6.24435
-0.07367
0.157983
9.08906
-0.152096
-0.0324697
13.3012
-0.157088
-0.167032
17.7669
-0.112658
-0.313224
22.3782
-0.0360413
-0.463958
27.1054
0.0992914
-0.579048
31.7074
0.289967
-0.670872
35.9914
0.520017
-0.671618
39.4764
0.774932
-0.567042
41.6697
0.922796
-0.213591
42.1445
0.882614
0.209969
41.7461
0.672736
0.570824
40.43
0.334219
0.986892
40.8949
0.00653809
1.14874
61.7765
-0.221764
0.63289
79.9883
-0.344326
0.223384
84.574
-0.405541
-0.0329955
87.5563
-0.383736
-0.156274
91.9827
-0.297617
-0.160482
97.3666
0.016759
-0.106713
96.8765
0.389448
-0.117226
90.2796
0.47891
-0.0451405
95.7336
0.386802
0.148697
97.3754
0.172173
0.392139
95.0753
-0.0796036
0.730675
88.705
-0.388817
1.1402
67.2315
-0.794893
1.08944
45.1139
-1.08771
0.715779
44.4925
-1.20395
0.336779
45.8477
-1.15885
-0.0286364
45.9914
-0.957286
-0.421829
45.1541
-0.695441
-0.683819
43.8227
-0.447552
-0.774137
41.3243
-0.228084
-0.77341
37.7752
-0.0633382
-0.689075
33.3382
0.0398389
-0.553688
28.4594
0.108
-0.407026
23.4299
0.126637
-0.238485
18.523
0.0659543
-0.0978316
13.8219
0.105704
9.22718
-0.146299
0.295381
12.54
-0.248847
0.0564786
17.4766
-0.30548
-0.126408
22.3639
-0.313663
-0.32457
27.3812
-0.260398
-0.537814
32.4175
-0.175917
-0.685229
37.2391
-0.0405888
-0.827987
41.7623
0.128766
-0.861924
45.4059
0.358155
-0.817276
47.376
0.583881
-0.464851
46.2875
0.622404
0.146784
44.5345
0.465099
0.703411
42.8506
0.227304
1.2413
44.7333
-0.0407051
1.45995
67.0142
-0.325113
0.901036
77.6358
-0.46979
0.357243
75.4869
-0.470674
-0.0282928
74.7134
-0.408214
-0.200981
76.4294
-0.285449
-0.248708
79.2669
0.0114288
-0.36205
77.3918
0.322656
-0.392845
69.1039
0.437408
-0.131825
73.4587
0.425887
0.162554
79.7423
0.29513
0.506048
84.6399
0.102249
0.907538
86.974
-0.114591
1.41913
77.8957
-0.431975
1.45248
50.8413
-0.689823
0.951758
46.4895
-0.790947
0.418592
47.8278
-0.7155
-0.115861
48.2633
-0.491351
-0.659957
48.5946
-0.268258
-0.922601
48.8549
-0.0763404
-0.984922
47.0134
0.0861728
-0.957036
43.6055
0.191635
-0.817356
38.9562
0.267048
-0.651149
33.9007
0.288675
-0.45078
28.6276
0.235507
-0.204159
23.3349
0.149013
-0.0276824
18.1027
0.242659
12.8908
-0.173916
0.460131
16.0782
-0.354827
0.223093
21.8314
-0.445246
-0.0533402
27.0114
-0.514383
-0.275756
32.3423
-0.52518
-0.549252
37.659
-0.485175
-0.748196
42.7761
-0.408346
-0.927942
47.4723
-0.289754
-1.00267
51.1571
-0.140736
-0.986838
53.0934
0.1318
-0.759897
51.7653
0.347314
-0.0858772
44.9607
0.304333
0.730467
44.2471
0.208276
1.36442
48.6784
0.0948982
1.58494
68.9892
-0.149194
1.1211
74.9608
-0.414008
0.600905
67.1761
-0.532632
0.103439
65.7634
-0.458247
-0.260294
64.3454
-0.288957
-0.398887
64.9371
-0.0712078
-0.564626
63.8506
0.122618
-0.57244
60.8079
0.280646
-0.277292
60.8256
0.357968
0.0765277
65.0538
0.299911
0.535644
73.1375
0.164734
1.00706
81.1475
0.0516098
1.54203
82.4087
-0.103606
1.66878
58.6527
-0.272011
1.11301
48.027
-0.280279
0.417245
47.6299
-0.113198
-0.291035
46.8668
0.0827125
-0.866935
51.9113
0.229911
-1.08553
53.7719
0.355848
-1.13092
52.5269
0.440517
-1.06491
49.2463
0.488383
-0.889959
44.6018
0.496215
-0.683571
39.3001
0.43282
-0.411004
33.7204
0.355177
-0.146886
28.0936
0.194208
0.115264
22.6795
0.424086
16.6542
-0.186884
0.635576
19.4472
-0.4015
0.421629
25.7672
-0.552447
0.0784819
31.4605
-0.654082
-0.195375
37.0259
-0.713219
-0.512706
42.6159
-0.723266
-0.760907
48.112
-0.698406
-0.975246
53.2364
-0.632496
-1.08904
57.3111
-0.545583
-1.09194
59.3818
-0.36556
-0.953298
58.2419
-0.0480514
-0.434262
50.8355
0.113593
0.566212
45.7681
0.183987
1.32116
52.8138
0.290829
1.46442
69.118
0.268115
1.10788
72.7706
0.174395
0.673695
67.4328
-0.0414064
0.310968
61.9731
-0.258387
-0.0404314
61.5153
-0.284486
-0.362907
64.3741
-0.248156
-0.590492
65.055
-0.244844
-0.566041
61.9455
-0.202257
-0.317567
60.6008
-0.11791
-0.0113392
63.5778
-0.0591408
0.456508
70.7931
-0.023362
0.935075
78.7053
0.05877
1.43164
82.7369
0.138197
1.64465
66.1913
0.134232
1.1163
51.5858
0.250913
0.298149
48.342
0.448561
-0.496588
51.0359
0.558365
-0.983545
56.7618
0.638267
-1.17879
59.2967
0.69273
-1.20489
58.4714
0.714754
-1.11088
55.1302
0.704125
-0.905766
50.172
0.65286
-0.658953
44.4641
0.559826
-0.34404
38.5346
0.42724
-0.0376484
32.6066
0.222251
0.299331
26.7331
0.630177
20.1959
-0.177034
0.801012
22.5908
-0.427574
0.655802
29.4936
-0.634496
0.266014
35.6092
-0.783768
-0.0670174
41.3417
-0.881484
-0.437102
47.056
-0.926471
-0.737793
52.9595
-0.935579
-0.987727
58.7795
-0.915479
-1.12886
63.7554
-0.852819
-1.17034
66.9517
-0.760105
-1.05419
67.1727
-0.439554
-0.746755
62.9438
0.00363244
0.121739
47.7842
0.241271
1.09453
56.0046
0.442199
1.22756
67.0455
0.566464
0.937372
69.3901
0.582621
0.623888
66.5253
0.510579
0.365342
63.2092
0.152508
0.31251
61.2856
-0.243428
0.0390241
65.7891
-0.407209
-0.417668
68.3647
-0.56775
-0.403734
64.5299
-0.687837
-0.208227
63.0033
-0.638224
-0.0803554
65.7872
-0.46596
0.254721
70.3165
-0.267306
0.691425
75.8852
-0.0101044
1.12112
79.7215
0.25993
1.39516
70.8378
0.445649
0.926453
56.1327
0.680988
0.054839
51.0169
0.877809
-0.68884
59.0351
0.957292
-1.066
64.832
0.996231
-1.23001
66.8502
0.994592
-1.22337
65.3434
0.964695
-1.10634
61.2603
0.904604
-0.873298
55.5822
0.815464
-0.597953
49.2724
0.675899
-0.231563
43.0313
0.489257
0.124444
36.9802
0.236828
0.529714
30.6713
0.850789
23.5826
-0.127561
0.914976
25.2475
-0.370247
0.881762
32.5884
-0.618379
0.494766
38.8546
-0.801635
0.0969791
44.6883
-0.935572
-0.323328
50.3557
-1.02494
-0.666977
56.6409
-1.06829
-0.962604
63.4015
-1.07968
-1.13469
69.6418
-1.05848
-1.20702
74.4308
-0.988271
-1.13517
76.6408
-0.805437
-0.932611
75.2751
-0.247514
-0.432158
69.1751
0.360542
0.487366
58.2298
0.645123
0.910862
64.4763
0.79923
0.746832
66.1487
0.798735
0.598682
65.2647
0.663649
0.486864
63.8211
0.436946
0.537984
63.0811
0.0486171
0.445022
66.8568
-0.276817
-0.0772798
73.6133
-0.461188
-0.206523
70.0728
-0.689652
0.0202345
64.8355
-0.840696
0.0550907
65.543
-0.7855
0.169257
68.1579
-0.561052
0.420671
71.6646
-0.221724
0.72403
74.2783
0.198018
0.953587
71.1467
0.645795
0.470713
59.1468
1.01304
-0.306689
64.0478
1.18563
-0.854151
71.741
1.2298
-1.11418
75.6079
1.21417
-1.22874
75.7363
1.16087
-1.1923
72.6352
1.08368
-1.05627
67.1481
0.984521
-0.803262
60.2843
0.854555
-0.497658
53.1268
0.691381
-0.0968377
46.5567
0.488536
0.300453
40.2222
0.229873
0.764857
33.8942
1.06235
26.604
-0.0387299
0.938301
27.186
-0.206589
1.03113
34.6896
-0.470043
0.737208
40.5964
-0.724294
0.331918
46.108
-0.900149
-0.164911
51.7692
-1.0032
-0.57919
58.1589
-1.08226
-0.896994
66.1737
-1.12813
-1.10258
73.9732
-1.14189
-1.20778
80.8413
-1.10682
-1.18227
85.4608
-1.01857
-1.02704
86.8115
-0.708753
-0.736101
84.1905
0.0193836
-0.216318
75.2531
0.586232
0.340582
66.0365
0.749608
0.571979
66.5582
0.756555
0.583599
66.2577
0.591269
0.647206
65.4885
0.402798
0.732863
65.4337
0.290524
0.579782
70.1176
0.0500518
0.184399
77.2212
-0.147077
0.00231948
78.777
-0.30464
0.190179
72.3688
-0.533579
0.28482
69.1106
-0.622257
0.253554
69.3783
-0.520642
0.301624
70.0398
-0.211597
0.387601
70.9084
0.363806
0.357766
70.1869
0.9731
-0.114975
71.4014
1.29456
-0.608286
81.1635
1.38682
-0.940929
86.0381
1.37529
-1.11109
86.9231
1.311
-1.18313
84.4972
1.22017
-1.12697
79.285
1.10872
-0.974233
71.9422
0.977355
-0.702248
63.5335
0.837297
-0.388274
55.3487
0.658054
0.0526482
48.6382
0.440529
0.489262
42.303
0.199412
0.981665
36.3322
1.24312
29.1776
0.0589636
0.861743
28.5601
0.0561789
1.01359
35.6694
-0.0649537
0.83522
40.6502
-0.284513
0.528168
44.1082
-0.593378
0.123051
49.3533
-0.836947
-0.342831
56.2722
-0.959591
-0.777274
66.1007
-1.04702
-1.02073
75.6592
-1.1073
-1.1571
85.0578
-1.11642
-1.18306
92.4372
-1.08188
-1.06929
96.8785
-0.971095
-0.847403
97.487
-0.645269
-0.532567
93.8924
-0.107111
-0.171128
84.7521
0.255812
0.236481
74.041
0.356673
0.493878
70.7928
0.323696
0.691951
68.9709
0.295436
0.784558
69.6095
0.351019
0.563386
76.5609
0.310469
0.257366
85.0836
0.177314
0.152764
89.8814
0.117512
0.264564
85.4012
0.0849388
0.335035
79.5754
0.0750969
0.281782
79.339
0.176843
0.218873
80.0002
0.494176
0.0954242
81.3298
1.0004
-0.11115
87.0866
1.34784
-0.439573
94.9987
1.46211
-0.714778
98.6648
1.45118
-0.934981
99.2427
1.37487
-1.05072
96.8673
1.26485
-1.09714
91.8132
1.13692
-1.02783
84.3288
0.987385
-0.856315
74.7821
0.831197
-0.576772
64.3432
0.653663
-0.241668
54.792
0.4811
0.191556
47.2062
0.32466
0.614492
42.087
0.145989
1.13557
37.7254
1.36899
31.2066
0.11219
0.729618
29.3497
0.265926
0.835447
35.8279
0.337848
0.736776
39.9782
0.329924
0.512642
42.4327
0.144998
0.292747
43.3282
-0.208051
-0.0175142
45.704
-0.573559
-0.398522
61.8246
-0.810519
-0.777776
73.4944
-0.936794
-1.0338
86.0469
-0.992696
-1.13309
96.4125
-1.00461
-1.06579
104.4
-0.977476
-0.879204
108.734
-0.884965
-0.620343
108.826
-0.683099
-0.351733
104.326
-0.354571
-0.0514103
93.6578
-0.0896197
0.274563
84.0122
0.0619871
0.582041
77.8587
0.236852
0.663531
80.0329
0.387533
0.468939
89.9225
0.408437
0.273173
97.0969
0.384492
0.196328
99.8483
0.409273
0.261133
98.7306
0.523628
0.249445
96.6851
0.675885
0.163599
97.6241
0.886785
0.0437631
100.073
1.14434
-0.127238
106.091
1.34906
-0.295481
110.749
1.43964
-0.522018
112.795
1.435
-0.714152
112.382
1.36235
-0.875909
109.631
1.24595
-0.956161
104.531
1.10353
-0.982274
97.1258
0.947499
-0.90246
87.3277
0.7358
-0.676205
75.1422
0.469112
-0.336773
61.7271
0.302397
-0.113865
49.1289
0.264162
0.200042
42.5427
0.20336
0.647536
40.616
0.0938742
1.22121
38.4604
1.4419
32.7435
0.183092
0.528425
29.5525
0.473126
0.520765
34.9143
0.704729
0.480062
38.4582
0.866789
0.332458
40.9447
0.923637
0.227203
42.9495
0.798399
0.110555
45.198
0.345607
0.058878
47.7668
-0.266238
-0.146761
65.4368
-0.632523
-0.656324
83.2715
-0.764026
-0.997742
96.6348
-0.804492
-1.02671
108.361
-0.811528
-0.878282
116.757
-0.783542
-0.650958
121.245
-0.713204
-0.414559
122.304
-0.579636
-0.158013
119.186
-0.354508
0.102283
109.468
-0.0779617
0.374948
100.747
0.192915
0.467378
102.08
0.359871
0.358176
110.535
0.407226
0.255107
112.644
0.439765
0.185048
113.77
0.54019
0.186219
114.557
0.692333
0.129597
116.684
0.863396
0.0238641
119.661
1.03496
-0.103678
124.075
1.16983
-0.248678
126.779
1.26943
-0.391402
127.207
1.30561
-0.562779
125.736
1.27186
-0.692769
122.389
1.17798
-0.80131
117.166
1.03265
-0.835804
109.978
0.863059
-0.842347
100.552
0.622288
-0.692253
88.3081
0.214626
-0.295774
72.3163
-0.0555314
-0.106594
51.2134
-0.047398
-0.131496
44.9691
0.0334628
0.110571
40.6736
0.0636216
0.59377
39.5213
0.0370443
1.22475
38.928
1.45658
33.7978
0.348164
0.204046
34.6146
0.740092
0.157548
39.8058
1.12146
0.134376
44.4847
1.40657
0.087199
49.1542
1.52001
0.149811
53.4375
1.44317
0.206535
56.9382
1.19476
0.30202
58.5933
0.585683
0.450531
59.5906
-0.118687
0.0811079
73.9587
-0.455982
-0.646086
92.728
-0.555256
-0.917978
108.125
-0.591871
-0.842949
120.858
-0.599723
-0.648349
128.662
-0.580481
-0.434811
133.239
-0.512035
-0.21913
134.837
-0.376788
-0.00863435
132.554
-0.140199
0.183381
127.909
0.105759
0.273285
127.72
0.267089
0.230386
130.316
0.361183
0.179595
127.712
0.456712
0.106578
128.377
0.592423
0.0730334
131.041
0.753906
-0.0086128
134.779
0.90862
-0.113784
138.567
1.03597
-0.221492
140.408
1.13765
-0.347143
140.229
1.20003
-0.45721
138.25
1.20129
-0.572824
134.672
1.13564
-0.641881
129.474
1.00279
-0.688434
122.611
0.808318
-0.666512
113.892
0.57179
-0.634014
102.761
0.112897
-0.26147
87.431
-0.341652
0.142183
60.4861
-0.458353
0.0137859
55.1999
-0.427535
-0.158885
50.9762
-0.294464
-0.0161442
43.5675
-0.131791
0.416417
39.1752
-0.0224751
1.09077
38.894
1.41127
34.3922
0.31212
-0.0827517
51.8207
0.630187
-0.126513
63.3746
0.968229
-0.175663
70.9069
1.2719
-0.214459
73.2214
1.43177
-0.0282268
72.5015
1.34077
0.264415
70.5603
1.13473
0.462957
67.1981
0.86875
0.68192
64.2221
0.369831
0.577311
66.261
-0.105795
-0.136831
83.1982
-0.28303
-0.711328
103.299
-0.344026
-0.770076
121.568
-0.366535
-0.624271
133.022
-0.365664
-0.436504
140.32
-0.331636
-0.25111
144.997
-0.249809
-0.0836712
147.264
-0.105289
0.0576575
146.756
0.0587455
0.133067
146.621
0.191104
0.1166
146.208
0.293985
0.0886813
141.963
0.394582
0.0181612
142.733
0.518684
-0.0373552
146.212
0.653539
-0.13239
150.355
0.786502
-0.239843
152.074
0.913934
-0.346547
151.7
1.0133
-0.448255
149.592
1.07448
-0.524138
145.97
1.06916
-0.577544
140.888
0.990123
-0.577337
134.425
0.820339
-0.538561
126.457
0.598663
-0.468336
116.749
0.274656
-0.337075
104.247
-0.178468
0.174701
81.7028
-0.501922
0.451793
64.8467
-0.679036
0.18915
65.5801
-0.743055
-0.0657968
62.9239
-0.618484
-0.104782
53.8352
-0.351194
0.162667
41.7403
-0.0780395
0.793443
38.1163
1.30939
34.4786
0.0770539
-0.163004
59.8809
0.249215
-0.297281
75.7308
0.442869
-0.370479
80.8632
0.692439
-0.477568
76.3305
0.936204
-0.29099
72.3562
0.969028
0.19888
70.7641
0.841208
0.547394
67.8202
0.69641
0.793947
65.162
0.560876
0.704024
66.2863
0.262823
0.189056
73.9705
0.000595584
-0.399355
92.4877
-0.110238
-0.627315
118.166
-0.174971
-0.54889
134.348
-0.208117
-0.400538
144.585
-0.212853
-0.245435
151.258
-0.181223
-0.111852
155.565
-0.098221
-0.0187957
157.524
0.010557
0.0341305
158.23
0.120784
0.0148971
157.194
0.233933
-0.018453
152.805
0.35093
-0.0941611
153.864
0.484699
-0.163746
157.75
0.624016
-0.265162
160.378
0.765314
-0.376508
160.647
0.894264
-0.473383
158.983
0.995126
-0.548802
155.66
1.04924
-0.580928
150.888
1.03591
-0.570378
144.803
0.932262
-0.484808
137.63
0.736009
-0.358114
129.287
0.441821
-0.193968
119.29
0.0642381
0.0203849
106.027
-0.234265
0.47499
80.8623
-0.465523
0.664497
68.4894
-0.672413
0.368712
73.0556
-0.779708
0.042447
77.4973
-0.749103
-0.0815127
73.9496
-0.510904
0.00354215
58.8864
-0.144237
0.450688
40.5727
1.14438
34.0702
-0.0437299
-0.123232
65.9378
0.0283526
-0.370682
81.324
0.124408
-0.46744
84.7989
0.22933
-0.583523
74.687
0.458054
-0.530245
65.8513
0.564322
0.0785961
65.8958
0.553251
0.530971
65.1805
0.585204
0.741717
64.4077
0.609224
0.676274
65.953
0.536712
0.276638
70.565
0.339359
-0.150178
83.6527
0.172011
-0.400356
108.36
0.0680831
-0.413552
131.575
-0.00407215
-0.31635
146.108
-0.0364363
-0.207575
155.452
-0.0341009
-0.109692
161.186
9.65769e-05
-0.0479754
164.87
0.0524771
-0.0124153
166.204
0.110477
-0.0379839
165.588
0.176993
-0.0817676
161.702
0.252644
-0.165559
162.241
0.349328
-0.254337
165.675
0.472937
-0.382823
167.209
0.621282
-0.519555
166.185
0.783922
-0.630802
163.177
0.923666
-0.684055
158.444
1.01371
-0.668631
152.465
1.01558
-0.574297
145.577
0.904486
-0.380942
138.271
0.684151
-0.150872
130.29
0.382176
0.0924289
120.856
0.028457
0.359123
108.089
-0.197963
0.715418
84.0252
-0.338634
0.790977
70.2433
-0.48504
0.479345
74.4362
-0.557259
0.0815339
82.3244
-0.548342
-0.0898195
88.7812
-0.431626
-0.0584327
84.7904
-0.177034
0.282662
58.6703
0.972541
34.6118
-0.128383
-0.00113459
70.201
-0.126033
-0.369278
84.6546
-0.0810136
-0.508222
87.6746
-0.0963877
-0.554676
73.9393
0.00599436
-0.61622
64.9922
0.253271
-0.169745
60.4457
0.358062
0.413832
62.2718
0.494491
0.594981
63.2348
0.67114
0.497071
65.206
0.711815
0.249257
68.743
0.599504
0.00734554
78.2039
0.3977
-0.127759
100.92
0.215058
-0.182826
127.505
0.0817433
-0.162184
145.985
-0.00071029
-0.116972
157.194
-0.0442569
-0.0617243
164.507
-0.0517726
-0.036814
168.772
-0.0314956
-0.0285248
170.625
0.00796067
-0.0739045
169.93
0.0710212
-0.140986
165.745
0.154947
-0.245223
166.46
0.275294
-0.367373
170.102
0.433692
-0.532089
170.621
0.624191
-0.69696
168.305
0.803649
-0.79303
163.763
0.920608
-0.782982
157.471
0.963185
-0.696998
150.355
0.929232
-0.532493
143.033
0.809978
-0.261924
136.137
0.56778
0.0853837
129.47
0.229939
0.422624
121.323
-0.0902843
0.681588
109.357
-0.214715
0.863243
87.0696
-0.259802
0.834417
72.1648
-0.318385
0.508879
74.0878
-0.35382
0.0840995
83.034
-0.33665
-0.118823
94.7824
-0.238629
-0.129793
98.2188
-0.155924
0.265218
76.3482
0.893089
41.5887
-0.123419
0.115863
70.4483
-0.142339
-0.338962
86.0112
-0.170176
-0.463592
91.4388
-0.244708
-0.450673
74.2429
-0.352389
-0.491064
63.2336
-0.118459
-0.395829
62.4923
0.321454
-0.0278249
61.0167
0.589309
0.329075
62.9342
0.786762
0.309901
65.5132
0.838759
0.223812
69.894
0.730672
0.172718
80.3225
0.550345
0.131059
101.257
0.376909
0.0503746
126.185
0.241545
0.00362227
145.031
0.149553
-0.00998707
157.398
0.0915908
0.00463911
165.529
0.0593724
0.0014456
170.723
0.0435708
-0.00765174
173.15
0.0356583
-0.0605619
172.687
0.032733
-0.131982
168.567
0.0416515
-0.24643
168.606
0.086859
-0.401681
171.831
0.198639
-0.626973
171.157
0.378399
-0.850388
166.768
0.556315
-0.937994
159.529
0.653888
-0.851917
151.03
0.677637
-0.698152
142.923
0.635072
-0.474442
135.665
0.481518
-0.102372
129.872
0.184778
0.382432
124.444
-0.143168
0.751072
118.048
-0.34012
0.892665
106.219
-0.328557
0.877146
88.5005
-0.244016
0.75784
74.6493
-0.185785
0.433264
73.8694
-0.180872
0.0584269
83.0673
-0.163845
-0.139544
98.1995
-0.129394
-0.134526
100.461
-0.131369
0.299508
79.4343
0.850739
52.3792
0.0176984
0.0935371
61.6569
-0.0867273
-0.21359
82.3898
-0.194877
-0.325566
94.6807
-0.339667
-0.265407
73.9885
-0.52819
-0.28572
63.1076
-0.534841
-0.379018
64.0681
-0.104438
-0.45001
66.5869
0.358059
-0.116134
68.8248
0.510304
0.178794
72.0143
0.533065
0.236691
78.7945
0.469017
0.28686
91.7574
0.375169
0.275298
110.636
0.257801
0.201109
129.408
0.138694
0.142294
144.93
0.035924
0.102587
156.528
-0.046037
0.0915716
164.853
-0.112082
0.0709065
169.972
-0.162751
0.0479483
171.958
-0.20216
-0.0147143
170.432
-0.220591
-0.107797
166.417
-0.198414
-0.26083
167.251
-0.0995237
-0.484976
169.843
0.0724415
-0.768991
167.437
0.215804
-0.939811
160.247
0.177777
-0.84032
150.181
-0.0807698
-0.544716
140.822
-0.447564
-0.291611
132.893
-0.767847
-0.126486
126.458
-0.973963
0.123347
121.517
-1.03763
0.456801
116.892
-0.960675
0.686343
111.013
-0.793128
0.74419
101.052
-0.556621
0.662966
88.18
-0.33077
0.54198
78.1334
-0.236058
0.323277
78.4921
-0.317457
0.123819
93.8527
-0.397364
-0.0237124
102.052
-0.409504
-0.08218
82.0041
-0.306328
0.188647
66.7486
0.59421
58.7732
0.270033
-0.186356
53.0302
0.153684
-0.0714271
66.5127
-0.151794
0.020511
93.7669
-0.41436
0.0361766
71.01
-0.583115
-0.10152
61.9679
-0.599464
-0.349545
63.2254
-0.436705
-0.60187
65.9631
-0.0948526
-0.440447
71.2879
0.171905
-0.0710521
78.4948
0.284649
0.148605
86.3415
0.346382
0.255504
96.9916
0.352487
0.297054
110.573
0.308535
0.268608
125.151
0.232531
0.236554
139.248
0.151573
0.196131
151.258
0.0820162
0.168785
160.289
0.0259743
0.132408
166.125
-0.0205622
0.0995637
168.742
-0.0698137
0.0416853
167.556
-0.140268
-0.0305239
162.368
-0.257339
-0.136204
163.083
-0.44336
-0.269195
165.905
-0.739526
-0.402889
160.001
-1.16495
-0.423737
146.985
-1.64823
-0.283523
133.551
-2.07597
-0.0675583
124.364
-2.39333
0.0600115
118.608
-2.56657
0.0712788
114.594
-2.50427
0.0785031
111.416
-2.18996
0.155846
108.07
-1.74381
0.252507
103.171
-1.27703
0.289758
96.5317
-0.842016
0.238401
89.6629
-0.503548
0.205672
86.0241
-0.393105
0.199418
90.6809
-0.486049
0.219671
102.936
-0.623456
0.184463
100.477
-0.700141
0.0591803
74.4803
-0.573904
0.0507488
58.4107
0.0177632
57.0069
0.316941
-0.534614
57.0319
0.248132
0.00837975
62.536
-0.0371677
0.343421
90.1585
-0.288285
0.314921
68.4349
-0.463448
0.0854126
59.6414
-0.46996
-0.339117
60.7418
-0.336118
-0.742119
62.8442
-0.111236
-0.659718
66.2559
0.13101
-0.298363
75.7796
0.245359
0.0486726
86.9052
0.277033
0.242044
97.2823
0.259801
0.337066
110.735
0.190413
0.359177
125.77
0.100753
0.342145
140.323
-0.000646821
0.306418
152.192
-0.103016
0.27488
161.063
-0.214691
0.247428
166.322
-0.347702
0.239192
167.888
-0.549052
0.252436
165.539
-0.86912
0.296079
162.294
-1.33366
0.366135
161.897
-1.97525
0.481795
154.016
-2.8649
0.609367
137.314
-3.8339
0.61111
125.65
-4.49382
0.420174
121.608
-4.61831
0.100695
119.245
-4.3186
-0.201536
116.578
-3.87811
-0.337699
113.39
-3.4378
-0.334597
109.949
-2.95276
-0.305677
106.352
-2.37506
-0.306602
102.69
-1.76888
-0.302412
99.3098
-1.21725
-0.304734
97.1765
-0.788754
-0.224909
98.0502
-0.531173
-0.0698227
103.613
-0.39903
0.0867892
111.366
-0.350572
0.17403
112.524
-0.442112
0.226492
93.1548
-0.444803
0.0737362
59.9214
-0.432378
53.9539
0.128506
-0.674356
64.6591
0.127899
0.0212348
75.975
0.129491
0.370612
98.0212
0.0719546
0.378525
78.8982
-0.0815446
0.236588
63.3588
-0.174655
-0.250869
62.0068
-0.152397
-0.782588
64.045
0.0691099
-0.891294
64.635
0.30357
-0.52509
69.7705
0.400946
-0.0287806
79.7502
0.39296
0.279201
93.6188
0.322495
0.441274
110.209
0.233183
0.479035
127.711
0.14601
0.451168
143.247
0.0704766
0.396189
155.302
0.00787564
0.346958
163.974
-0.0475357
0.310386
169.532
-0.100575
0.301052
171.921
-0.166864
0.330714
170.706
-0.266435
0.406031
166.518
-0.40775
0.521879
167.458
-0.583178
0.703073
168.396
-0.828193
0.943183
160.734
-1.1848
1.0689
147.682
-1.61516
0.930094
135.781
-2.01749
0.562737
127.169
-2.35284
0.179417
120.266
-2.54981
-0.108325
115.076
-2.49948
-0.355084
110.596
-2.20748
-0.57109
104.718
-1.77134
-0.717795
97.7039
-1.29624
-0.752605
89.5895
-0.839569
-0.742565
81.9493
-0.494158
-0.570644
78.2249
-0.290755
-0.294436
82.7889
-0.253159
0.0212115
98.6076
-0.226791
0.154083
111.119
-0.226956
0.273745
103.319
-0.183568
0.0561307
70.0457
-0.599792
57.15
0.0233149
-0.668765
67.2089
0.134234
-0.0805547
83.6919
0.299321
0.220694
99.0554
0.363716
0.301819
85.7395
0.30604
0.2655
71.6246
0.193521
-0.161775
67.4071
0.0430319
-0.663486
67.7661
0.0748908
-0.949169
66.3845
0.28424
-0.738305
69.2247
0.37954
-0.108407
77.7043
0.310637
0.381323
93.2846
0.203547
0.586087
113.241
0.101502
0.609103
132.116
0.0165659
0.553204
147.177
-0.0538695
0.475255
158.298
-0.110353
0.40918
166.013
-0.156056
0.360773
170.624
-0.191646
0.342445
172.409
-0.216234
0.362448
171.027
-0.23133
0.427095
167.523
-0.214633
0.512486
168.694
-0.122267
0.628311
171.37
0.0447795
0.813558
168.82
0.201903
0.974998
161.574
0.219145
0.978749
152.253
0.0346199
0.797477
144.291
-0.316215
0.563564
138.429
-0.71
0.314182
132.876
-0.994761
-0.0364436
124.215
-1.10668
-0.437762
115.406
-1.04922
-0.750878
105.893
-0.861464
-0.907953
92.8577
-0.613225
-0.964437
78.9057
-0.435558
-0.757543
71.2829
-0.354572
-0.412767
74.4759
-0.374805
-0.00568099
88.5948
-0.368306
0.140762
105.448
-0.266386
0.209069
104.061
-0.146559
-0.0370657
75.6654
-0.689176
55.1716
0.0876378
-0.68341
61.4942
0.295836
-0.251777
82.7087
0.55792
-0.0243553
95.0538
0.704204
0.133118
89.0903
0.759995
0.166689
79.6262
0.683683
-0.125977
75.7965
0.449891
-0.474427
73.2208
0.272763
-0.815098
69.6692
0.281917
-0.757282
69.7742
0.299248
-0.109595
79.1995
0.203709
0.512453
96.0082
0.0972967
0.727029
117.058
0.0174516
0.710766
135.345
-0.0394212
0.621109
149.065
-0.0812193
0.52308
158.822
-0.103995
0.436103
165.458
-0.114469
0.375127
169.556
-0.111841
0.344511
171.251
-0.099137
0.355448
170.14
-0.0834984
0.415895
166.267
-0.0540141
0.48716
167.141
0.0222384
0.560624
171.061
0.164381
0.686619
170.467
0.367009
0.798543
166.476
0.549147
0.828701
160.135
0.639785
0.733284
153.023
0.652852
0.567505
146.333
0.585729
0.391547
139.923
0.366692
0.184116
133.536
0.0107997
-0.0821592
126.003
-0.337905
-0.383398
114.854
-0.502921
-0.707015
97.2816
-0.478623
-0.960941
77.5973
-0.478509
-0.780036
69.2446
-0.49284
-0.443655
72.5525
-0.463687
-0.0863133
79.9843
-0.435891
0.0851077
92.6939
-0.31363
0.110226
97.2289
-0.166113
-0.13623
77.7624
-0.777553
46.2409
0.239145
-0.836167
47.8576
0.604281
-0.515487
68.0075
0.942405
-0.283737
82.1659
1.15022
-0.0592421
87.1998
1.24578
0.0387976
85.1793
1.14656
-0.0731729
82.2949
0.871147
-0.255121
78.328
0.529092
-0.529758
73.0556
0.323185
-0.57588
70.3991
0.201885
0.0285169
80.197
0.0391519
0.707598
99.4797
-0.0724883
0.859827
121.5
-0.134732
0.783468
137.856
-0.176612
0.66655
149.115
-0.197871
0.544819
157.143
-0.200598
0.438809
162.658
-0.183241
0.358112
166.007
-0.149317
0.311726
167.162
-0.0928064
0.300097
165.849
-0.0232888
0.34639
162.105
0.0621543
0.401875
163.011
0.18804
0.437577
167.602
0.355948
0.524145
168.026
0.557209
0.606526
165.801
0.741266
0.657996
161.782
0.840858
0.646523
156.387
0.837223
0.579674
150.316
0.755549
0.475428
143.641
0.610743
0.325865
136.365
0.348636
0.173326
128.223
-0.0286985
-0.00763369
118.273
-0.316579
-0.386434
99.1976
-0.478281
-0.774547
75.1689
-0.647104
-0.644061
68.8459
-0.784499
-0.35553
74.5355
-0.820727
-0.0912005
81.8498
-0.762941
0.0271266
87.3442
-0.560779
-0.0317221
83.5342
-0.22653
-0.38239
60.9966
-0.98169
36.2393
0.26511
-1.08292
36.6951
0.722991
-0.920065
45.7382
1.18281
-0.652478
55.2743
1.54557
-0.320134
66.2338
1.71303
-0.06519
75.2313
1.61179
0.0385171
79.4928
1.27833
0.0418379
79.007
0.838555
-0.14713
74.3926
0.429078
-0.198251
70.8197
0.069673
0.410907
81.1593
-0.149866
0.951663
105.613
-0.231007
0.952017
124.479
-0.277845
0.832545
137.785
-0.292472
0.679795
147.048
-0.287042
0.536999
153.638
-0.259263
0.409437
158.179
-0.212942
0.311292
160.829
-0.149168
0.248544
161.574
-0.0639845
0.21525
160.082
0.0263303
0.254682
155.925
0.115938
0.310306
156.938
0.222938
0.330625
161.63
0.352231
0.394907
162.844
0.508772
0.449994
161.535
0.668891
0.497681
158.592
0.796491
0.518035
154.247
0.859659
0.513082
148.806
0.837626
0.490979
142.369
0.705662
0.447518
134.957
0.498166
0.367921
126.29
0.19374
0.283352
115.685
-0.209063
0.0310816
98.918
-0.523555
-0.44405
71.8482
-0.795606
-0.400412
66.6776
-1.03173
-0.143854
71.0458
-1.09999
-0.00707944
72.8418
-0.95362
-0.0494045
67.6163
-0.59849
-0.304846
54.8278
-0.17273
-0.784972
41.5088
-1.17274
34.2996
0.191292
-1.30087
34.7365
0.562007
-1.32272
40.8991
0.932227
-1.0456
44.5275
1.26211
-0.646685
47.85
1.47646
-0.245551
52.5487
1.49052
0.0729261
59.2706
1.2868
0.2796
65.0753
0.88138
0.257924
67.5402
0.264885
0.408403
68.2588
-0.216529
0.915956
88.3961
-0.375573
1.12089
110.094
-0.43434
1.01058
125.082
-0.453854
0.846337
135.606
-0.443608
0.66258
143.002
-0.410188
0.497552
148.2
-0.354896
0.350118
151.593
-0.277366
0.231867
153.335
-0.181299
0.152041
153.331
-0.0484561
0.0816569
151.363
0.0837048
0.119912
146.876
0.191742
0.199316
148.265
0.313537
0.209103
153.272
0.447354
0.260831
155.208
0.591324
0.304262
154.636
0.729238
0.356833
152.52
0.833633
0.409064
149.076
0.888211
0.451923
144.455
0.878644
0.490738
138.667
0.798224
0.515245
131.725
0.62365
0.526372
123.433
0.373651
0.5165
113.385
-0.0688674
0.465977
99.4116
-0.540034
0.0459028
68.18
-0.800311
-0.142018
61.0093
-0.943562
0.0189867
59.777
-0.923154
0.0151786
54.7952
-0.724589
-0.214961
47.1711
-0.420053
-0.612668
41.6129
-0.109629
-1.12027
39.178
-1.30428
34.6955
0.129724
-1.45894
34.9965
0.346887
-1.57291
42.1917
0.535552
-1.26674
45.9695
0.708483
-0.843775
47.8199
0.839826
-0.389233
48.5993
0.845896
0.0628641
50.57
0.659086
0.459423
54.51
0.21823
0.684429
57.4041
-0.322285
0.951831
74.4401
-0.58393
1.18689
95.889
-0.642615
1.17845
111.86
-0.651175
1.01124
123.429
-0.628123
0.812707
131.467
-0.584783
0.609748
137.067
-0.519099
0.424731
140.789
-0.435895
0.263459
142.957
-0.333823
0.129688
143.571
-0.207196
0.0284419
142.481
-0.036576
-0.0824143
138.305
0.118093
-0.0331548
133.629
0.229038
0.0870728
136.992
0.333991
0.105789
142.19
0.445944
0.149094
144.991
0.573378
0.174559
145.15
0.701026
0.224195
143.706
0.81623
0.286462
141.045