/*--------------------------------*- C++ -*----------------------------------*\
  =========                 |
  \\      /  F ield         | OpenFOAM: The Open Source CFD Toolbox
   \\    /   O peration     | Website:  https://openfoam.org
    \\  /    A nd           | Version:  11
     \\/     M anipulation  |
\*---------------------------------------------------------------------------*/
FoamFile
{
    format      ascii;
    class       volVectorField;
    location    "700";
    object      U;
}
// * * * * * * * * * * * * * * * * * * * * * * * * * * * * * * * * * * * * * //

dimensions      [0 1 -1 0 0 0 0];

internalField   nonuniform List<vector> 
128000
(
(5.28366 -0.746081 17713.1)
(-3.49748 130.832 22527.2)
(-26.1269 231.466 22637)
(-24.6174 313.459 23679.1)
(-66.5827 435.359 24653.1)
(-91.0213 508.976 25271.2)
(-134.8 579.131 25653.9)
(-170.982 600.423 25668.7)
(-205.229 584.305 25240.9)
(-214.405 519.71 24464.3)
(-200.14 435.216 23529.8)
(-176.029 341.59 22358.8)
(-158.701 206.141 22044.9)
(-112.688 22.1675 29334.7)
(-25.9411 -32.7074 36895.4)
(7.31324 -8.34205 40180.4)
(24.2129 42.0505 42551.5)
(-7.10414 98.6984 42728.5)
(-64.3568 83.948 39103.4)
(-116.703 -1.11686 33978.4)
(-6.41314 -154.228 32976.1)
(118.882 -145.619 38126.2)
(167.416 -98.2682 41668.5)
(139.965 -91.0891 40781.3)
(118.312 -121.736 35207.2)
(174.77 -172.266 26897.6)
(321.091 -215.166 22898.3)
(447.545 -247.847 23733.5)
(549.409 -274.017 24923.3)
(642.555 -288.44 25848.9)
(718.297 -284.445 26594.9)
(765.926 -258.369 27119)
(763.478 -212.318 27251.2)
(727.84 -169.574 27037.4)
(647.673 -117.844 26511.1)
(557.063 -87.1524 25715.1)
(434.426 -43.1029 24685.2)
(323.556 -32.8049 23331.7)
(225.325 -18.3372 22896.9)
(75.6433 5.15402 21173.2)
(-5.24917 -127.964 22486.4)
(69.591 2.1869 23812.3)
(36.2322 136.736 25057.7)
(53.4051 205.933 26637)
(40.6951 374.815 28138.1)
(8.4325 451.583 28967.8)
(-36.0008 543.764 29542.1)
(-100.216 588.969 29645)
(-175.587 586.683 29153.2)
(-249.323 516.096 28016.1)
(-273.379 389.718 26580.9)
(-260.69 244.45 24760.3)
(-230.301 35.3406 23742.5)
(-168.487 -128.767 33288.4)
(-53.4503 -103.186 43946.3)
(48.0065 -63.7206 47005.6)
(86.5739 -41.8952 48062.3)
(90.3399 -27.6646 48227.5)
(66.8898 -52.4906 45652.4)
(-69.4957 -110.561 36024.3)
(-107.511 -109.102 33556.5)
(-83.8451 25.2533 42834.9)
(-46.7025 31.9545 47107.3)
(-41.5366 0.70364 48262.4)
(-47.8611 -102.558 44964.4)
(-52.4014 -202.718 32926.2)
(112.381 -287.253 25033.9)
(319.854 -337.99 26353.8)
(480.815 -354.455 28164.2)
(615.588 -340.648 29501.7)
(713.704 -285.25 30497.9)
(760.254 -202.958 31135.3)
(744.005 -123.669 31374.5)
(690.524 -57.2806 31178)
(589.027 -2.63661 30524.3)
(495.516 30.1001 29517.3)
(330.858 56.484 28070)
(237.786 34.3445 26046.5)
(94.1541 73.778 24637.1)
(-20.6536 10.0872 22995.7)
(-25.5284 -223.333 22539.9)
(34.3116 -128.587 25014.5)
(68.6576 5.7663 27008.9)
(84.7414 107.292 28657.6)
(103.207 234.204 30107.7)
(107.125 328.664 31224.4)
(87.6007 428.556 31968.7)
(44.862 484.443 32072.8)
(-35.1167 497.561 31330.3)
(-154.885 433.447 29619.5)
(-239.192 284.221 27666.9)
(-283.005 113.697 25465.5)
(-299.349 -122.289 24676.5)
(-258.892 -279.751 35955.1)
(-97.4978 -218.799 45080.4)
(15.6786 -155.645 46461.7)
(106.734 -87.3477 47143.7)
(138.148 -71.2859 48800.9)
(123.298 -46.6921 51157.4)
(61.3532 -65.9008 50658.6)
(-77.3782 66.5562 47213.7)
(-115.066 132.649 50299.3)
(-149.21 88.7499 51662.9)
(-172.929 1.16503 51196.7)
(-204.37 -143.748 48746)
(-255.933 -272.84 37940.5)
(-112.003 -331.226 26231.7)
(137.37 -343.516 26826.4)
(323.853 -306.803 28882.1)
(488.161 -249.519 30486.2)
(596.909 -147.409 31740.3)
(639.914 -44.1765 32952.8)
(615.301 31.7625 33576.1)
(557.504 76.6357 33554.6)
(453.936 105.476 32831.1)
(352.245 101.898 31611.4)
(207.917 87.4999 30003.9)
(99.3084 71.6463 28156.8)
(-49.9568 43.1246 25991.5)
(-167.458 -21.3209 22879.3)
(-24.3817 -303.759 23578.5)
(53.5422 -195.321 26578.4)
(86.9067 -93.5912 28639.3)
(139.052 8.72341 30379.8)
(163.422 135.623 31840.5)
(178.428 227.42 32931.1)
(183.404 319.718 33711.5)
(155.364 377.475 33845.6)
(106.892 392.378 32932.1)
(-36.2252 318.889 30261.3)
(-182.139 164.82 27597.1)
(-263.44 -29.3431 25344.3)
(-327.843 -275.853 25438)
(-327.466 -395.096 36833.9)
(-126.631 -283.24 41423.6)
(45.2948 -200.061 39338.2)
(105.745 -137.748 38222)
(143.035 -77.6951 38568.5)
(125.977 -49.321 39643)
(108.082 7.29565 38532.5)
(10.3895 122.267 34404.7)
(-96.2682 106.106 36735.9)
(-184.225 51.6735 40232.4)
(-252.97 -33.0967 43290.1)
(-306.089 -153.18 45322.7)
(-407.398 -302.018 41603.1)
(-346.552 -345.417 27948.9)
(-87.26 -321.945 26414.1)
(122.2 -244.872 28292.1)
(318.364 -158.698 29916.1)
(447.818 -11.9883 31777)
(503.698 97.5427 33963.4)
(484.284 154.019 35045.5)
(435.218 185.967 35200.4)
(333.222 190.654 34449.5)
(239.974 169.524 33297.1)
(106.181 158.631 31761.4)
(-15.5442 101.088 29881)
(-112.835 65.2828 27528.3)
(-243.381 -7.45683 24234.3)
(-65.0344 -418.947 24488.5)
(36.5159 -361.033 28004.3)
(103.441 -216.047 30003.4)
(160.12 -114.13 31766.8)
(225.962 11.9698 33253.8)
(253.379 114.654 34419.7)
(280.672 202.461 35203.9)
(270.5 257.52 35303.2)
(243.599 284.257 34385.9)
(146.377 215.918 31698.4)
(-83.1663 82.2116 26210.1)
(-244.03 -136.284 24709.2)
(-344.082 -363.316 26213.5)
(-396.832 -435.417 35973.5)
(-245.501 -321.554 38033.5)
(-48.2855 -221.661 33340.4)
(135.712 -122.753 32090.9)
(178.979 -71.1344 30995.9)
(172.272 -8.90818 31015.4)
(170.227 82.5547 30364.7)
(124.577 143.17 28917.2)
(11.4371 102.115 29048.7)
(-120.526 57.974 31325.9)
(-234.961 -40.4305 35669.6)
(-349.49 -172.89 40270.3)
(-479.632 -330.034 41830.5)
(-506.396 -357.59 30607.8)
(-273.268 -277.788 25843.6)
(-44.6333 -164.166 26601.2)
(147.573 -7.44104 27325.8)
(298.871 173.676 31793.7)
(353.232 251.827 34828)
(337.828 288.76 36249.9)
(290.998 298.775 36520)
(203.425 275.12 35888.4)
(103.594 244.402 34702.1)
(-32.0611 187.834 33118.8)
(-146.476 112.076 31203.7)
(-307.59 61.0311 29089.4)
(-393.675 -55.5994 25362.1)
(-87.2749 -483.478 25031.5)
(5.94905 -426.902 28716.2)
(106.385 -301.519 30981.3)
(176.534 -199.004 32742.7)
(252.112 -84.8368 34291)
(304.815 17.5047 35618.2)
(344.044 102.635 36606.6)
(357.675 152.987 36908.9)
(337.373 172.503 36081.7)
(293.118 139.44 33612.5)
(101.48 12.2981 28021.9)
(-174.266 -184.032 24253.9)
(-321.901 -399.749 27050.2)
(-404.452 -388.38 34340.8)
(-325.922 -244.746 35249.3)
(-210.633 -136.83 32001.4)
(-93.924 -43.4345 28938.3)
(111.512 20.4218 28382.3)
(181.349 42.2967 29466.4)
(213.598 94.5961 29659.1)
(210.643 94.0528 28240.9)
(146.006 19.741 27735.6)
(27 -46.0448 29331.2)
(-128.567 -148.354 33052.7)
(-275.56 -241.405 37346.5)
(-440.466 -349.202 40083)
(-549.568 -352.803 32918.8)
(-411.703 -223.678 26406.2)
(-164.23 -58.5674 25617.1)
(5.0678 163.922 28143.6)
(148.822 302.209 32760.9)
(200.609 360.062 36032.2)
(201.535 381.468 37656.9)
(163.258 370.093 37908.5)
(86.2524 332.067 37141.8)
(-9.58755 278.24 35776.4)
(-130.543 205.221 34074.4)
(-235.062 129.921 32107.5)
(-376.285 39.568 29789.3)
(-477.254 -76.835 25991.2)
(-128.505 -544.277 25321.2)
(-40.9874 -513.08 29199.1)
(85.4707 -401.209 31629.5)
(177.517 -288.945 33372.5)
(277.197 -169.057 34895.7)
(341.404 -65.6369 36416.5)
(397.346 19.082 37783.5)
(421.071 73.5267 38588.4)
(423.181 86.1102 38405.8)
(375.243 73.2084 36738.3)
(280.394 -34.8152 33006)
(-65.0504 -181.078 24136.8)
(-298.818 -331.136 27392.6)
(-366.966 -289.473 31869.5)
(-346.772 -144.867 32211.5)
(-269.922 -12.9659 30292.6)
(-200.388 57.1575 28348.9)
(-148.958 59.1798 27178.3)
(92.6149 27.7294 28960)
(208.165 53.3912 29981.5)
(236.425 11.549 28296.6)
(235.583 -78.0089 27726.4)
(195.956 -142.543 29169)
(54.2116 -201.759 31532.8)
(-126.87 -266.168 34552.3)
(-315.708 -324.018 37007.6)
(-489.178 -309.787 33698.7)
(-424.117 -148.77 27447.2)
(-224.547 63.6119 25765.2)
(-76.3476 299.143 30953.9)
(40.6881 405.566 35459.9)
(82.7858 458.337 38349.2)
(89.093 459.234 39549.6)
(54.8307 435.23 39376.8)
(-14.8216 378.085 38217.4)
(-106.067 311.733 36536.6)
(-230.076 220.646 34733.2)
(-354.309 116.481 32844.4)
(-492.652 2.90755 30361.4)
(-576.684 -126.491 26429.3)
(-160.575 -550.494 25200.2)
(-104.723 -543.622 29164.6)
(39.2834 -444.479 31568.1)
(151.188 -335.12 33311.5)
(262.698 -216.459 34751.1)
(352.115 -108.386 36478.3)
(420.741 -29.6421 38374.9)
(455.705 22.4238 39868.3)
(470.766 39.2119 40536.3)
(441.576 23.3619 39923)
(379.285 -17.6711 37693.1)
(184.215 -132.536 33452.9)
(-235.415 -215.73 27312.7)
(-349.4 -154.618 29444.1)
(-335.737 -19.5853 29542.4)
(-315.657 58.3137 28622.4)
(-250.033 86.8537 27589.9)
(-221.053 36.1651 26981.2)
(-144.879 -12.818 28399.4)
(110.284 22.2642 31156.4)
(153.14 -13.0019 29657.1)
(160.008 -101.524 27533.7)
(220.313 -158.056 28028.5)
(176.603 -223.55 29458.6)
(40.482 -269.106 31422.1)
(-136.482 -290.68 33166.3)
(-329.735 -267.384 32496.7)
(-345.994 -81.5763 27738.1)
(-226.276 202.552 30973.5)
(-112.574 401.644 35927.7)
(-38.3595 479.174 39387.9)
(-1.1399 510.463 41248.1)
(7.71241 494.3 41579.9)
(-20.2008 455.744 40638.7)
(-79.7406 386.118 38819.9)
(-167.136 307.347 36658.9)
(-286.256 195.722 34699.4)
(-407.742 90.7623 32675)
(-556.396 -47.5188 30329.1)
(-634.959 -165.141 26551.1)
(-186.824 -521.484 24593)
(-181.805 -525.083 28463.5)
(-51.0283 -443.819 30523.4)
(90.5434 -338.134 32051.2)
(233.344 -235.735 33529.8)
(323.55 -129.528 35340.1)
(412.06 -42.6807 37960.7)
(461.75 6.37904 40288)
(487.742 21.7804 42020.6)
(476.802 10.9951 42604.6)
(427.849 -26.0045 41699.1)
(335.868 -86.3529 39136.3)
(87.5729 -132.403 33997.3)
(-257.337 -61.8926 29089.8)
(-289.979 -2.53396 28705.6)
(-301.686 55.231 28084.6)
(-278.333 24.211 27379.4)
(-253.142 -45.8814 27080.8)
(-196.545 -56.2412 28828.6)
(-89.4628 27.2183 31640.2)
(61.8513 -8.52901 32274.2)
(-2.94134 -66.5787 29750)
(58.8709 -147.591 28600.9)
(102.393 -170.362 29006.3)
(83.1577 -200.865 29684.7)
(-29.0607 -197.087 30575.4)
(-177.914 -148.738 30911.2)
(-240.325 124.229 32256.5)
(-195.44 358.006 37735.1)
(-133.057 478.655 41332.6)
(-79.9685 521.924 43335.3)
(-44.2134 532.57 43919.4)
(-32.5537 502.702 43175.9)
(-54.0717 455.57 41262.5)
(-105.593 374.66 38599)
(-189.355 284.074 35841.9)
(-310.081 170.195 33805)
(-439.79 41.3904 31802.6)
(-597.787 -104.979 29808.2)
(-675.591 -213.145 26393.1)
(-185.219 -443.801 23754)
(-240.544 -431.127 27154.6)
(-172.085 -355.251 28569.2)
(-67.1812 -239.422 28836.8)
(108.016 -138.918 30221.4)
(273.074 -73.3673 32478.6)
(367.588 -23.2212 36154.4)
(429.947 22.206 39414.1)
(474.303 32.7323 42404.7)
(479.808 21.9271 44302)
(452.234 -10.6673 44826.1)
(389.967 -62.7755 43726.4)
(283.429 -110.019 40983.2)
(93.9064 -89.7993 36137.3)
(-136.17 -69.0653 30944.9)
(-193.911 -63.5287 29095.5)
(-235.875 -79.899 27976.3)
(-233.294 -129.506 27964.3)
(-206.614 -65.184 30563.1)
(-135.831 30.9993 33851.7)
(-83.2295 27.4477 35754.4)
(-78.0297 -27.2292 34081.9)
(-114.861 -52.0749 31965.6)
(-90.3019 -61.6382 32185.1)
(-101.272 -43.0591 32883.3)
(-127.226 -3.2926 33990)
(-198.089 148.777 37137.2)
(-233.944 339.032 41471.5)
(-202.694 444.94 44258.2)
(-150.597 504.845 45921.3)
(-98.3047 519.445 46423)
(-58.8224 511.685 45766.7)
(-40.2671 472.398 43920.2)
(-55.3453 413.553 40889.3)
(-96.1269 320.823 37126.5)
(-164.035 230.748 33549.1)
(-273.89 89.1477 30858.2)
(-423.233 -25.8264 29575)
(-594.226 -167.092 28717.8)
(-678.364 -249.375 25954.5)
(-164.166 -359.501 22715.3)
(-247.866 -300.333 25564.6)
(-236.519 -198.192 26494.9)
(-200.434 -74.5662 26294.7)
(-127.254 -7.73515 25259.1)
(26.8337 41.9797 25192.9)
(233.807 89.4981 32422)
(352.238 70.5955 36805.8)
(415.378 63.5389 41333.3)
(445.993 52.399 44611.3)
(429.087 17.6871 46717.6)
(390.719 -35.9856 47235.9)
(320.377 -90.9698 46064.8)
(233.375 -133.927 43182.1)
(109.15 -136.379 38039.6)
(-50.5514 -139.956 33588.8)
(-144.858 -162.629 30738.8)
(-194.004 -149.001 31306)
(-190.77 -40.9768 34955.2)
(-156.293 31.0131 37618)
(-129.94 44.4159 38677.6)
(-153.757 14.4997 38364.4)
(-175.354 27.7523 37807.7)
(-196.931 76.4511 38536.8)
(-213.07 129.9 40004.4)
(-233.444 227.639 43085.4)
(-256.671 316.859 45840.3)
(-238.314 401.963 47745.9)
(-193.716 452.879 48821.5)
(-138.246 483.89 49056.2)
(-86.128 481.376 48361.7)
(-40.9034 463.833 46644.9)
(-17.9482 415.791 43716.6)
(-27.1451 347.867 39383.9)
(-30.4867 235.491 34034.2)
(-67.0489 105.396 28630.6)
(-186.023 7.94292 26359.8)
(-358.865 -73.5011 26917)
(-555.515 -212.332 27444.2)
(-659.401 -277.465 25342.5)
(-141.617 -255.256 21507.5)
(-226.66 -134.823 23561.6)
(-271.294 -7.30135 24225.5)
(-269.146 135.581 24220.2)
(-257.574 229.732 23988.2)
(-213.472 268.7 23954.8)
(-126.896 239.37 24130.7)
(123.576 171.943 31652.3)
(310.783 119.526 38711.2)
(380.347 100.195 43346)
(387.374 71.8987 47075.3)
(353.565 19.6002 49301.6)
(304.409 -40.2506 49937.4)
(243.94 -84.0607 49300.5)
(166.05 -131.981 47176.3)
(72.6824 -147.977 42686.4)
(-55.6761 -163.386 38821)
(-134.532 -112.408 38982.9)
(-158.054 -21.3775 41950.7)
(-145.053 29.6598 42613)
(-136.308 45.1722 43036.3)
(-153.442 52.4262 43465.3)
(-181.731 90.9948 44541.2)
(-198.759 143.402 46091.2)
(-214.028 210.921 48369.5)
(-222.514 271.548 50176.5)
(-217.775 327.229 51275.2)
(-194.828 384.823 51786.5)
(-156.034 416.204 51677.6)
(-109.942 431.957 50893.6)
(-60.3424 419.184 49319.5)
(-13.7346 388.931 46727.2)
(14.3695 335.432 42691.1)
(23.0353 216.534 36519.4)
(60.6637 23.9109 27122.9)
(50.3788 -0.0511687 25117.2)
(-43.927 -38.3582 24065.2)
(-270.516 -114.639 24896)
(-499.83 -253.042 26272.7)
(-623.946 -294.844 24595.8)
(-125.686 -86.3082 23935.2)
(-195.258 85.2491 25647.1)
(-281.507 234.312 26862.5)
(-338.093 368.548 27965.3)
(-373.853 431.326 28780.8)
(-360.307 430.197 29158.6)
(-334.913 343.278 28651.5)
(-281.517 207.321 27945.5)
(43.4625 131.485 33416.6)
(265.251 136.617 40477.2)
(315.803 116.147 45770)
(301.184 72.8767 49778.5)
(261.517 11.0437 51734.8)
(210.923 -43.2243 52473)
(158.426 -87.8204 52173.8)
(82.707 -121.531 50550.2)
(4.68451 -128.122 48220.6)
(-82.8629 -81.8287 47734.1)
(-108.648 -23.7315 48416.5)
(-125.51 18.2952 47306.5)
(-121.918 47.7231 47552.7)
(-149.136 78.523 48681.8)
(-165.288 124.737 50361.6)
(-181.832 186.608 52227.4)
(-188.3 237.861 53539.6)
(-184.887 294.349 54258.5)
(-177.695 337.833 54445.9)
(-156.251 376.58 54149.9)
(-126.627 389.054 53322)
(-84.4116 387.304 51889.8)
(-41.2703 353.107 49698.7)
(18.1434 308.77 46399.3)
(28.2084 210.027 40999)
(72.203 -37.9666 29572.7)
(164.143 -88.3239 28261.3)
(206.564 -58.1321 27438.6)
(120.589 -104.612 24769.1)
(-117.545 -154.923 23627.2)
(-401.103 -273.008 25024.7)
(-572.446 -297.553 23749)
(-42.9737 68.8557 34274.6)
(-104.581 167.285 39207.1)
(-181.599 288.648 41239.8)
(-246.89 379.024 40221.7)
(-342.387 405.595 37789.7)
(-376.06 346.805 35048.3)
(-353.851 241.146 31937.8)
(-346.04 120.432 29327)
(-256.874 54.3863 29188.8)
(77.1304 108.843 35477.7)
(228.202 154.97 42759.9)
(239.286 120.702 49005.5)
(210.689 69.384 52388.6)
(172.929 19.7289 54160.2)
(127.017 -25.675 55015.4)
(81.3187 -49.9086 55089.7)
(21.2374 -65.2652 54286.5)
(-32.7666 -40.4578 53782.3)
(-60.4577 -4.64009 53328.5)
(-77.4152 30.2151 51633.1)
(-82.284 62.8828 51913.1)
(-96.8255 97.662 53328.3)
(-108.744 143.351 55147.4)
(-119.993 190.4 56249.4)
(-129.262 237.67 56747.6)
(-137.54 283.49 56757.6)
(-136.711 317.91 56339.4)
(-130.934 345.302 55482.4)
(-110.158 342.567 54178.3)
(-85.7962 324.106 52325.3)
(-38.2557 265.665 49757.6)
(-3.6378 208.856 45915.6)
(-24.3736 4.87484 37323.3)
(23.8301 -155.256 30834.4)
(150.587 -151.428 32588.7)
(270.669 -141.944 32819.8)
(268.207 -146.76 29589)
(76.4562 -180.771 24271.7)
(-262.519 -262.312 23550.9)
(-513.011 -287.621 22776)
(31.6182 61.894 38151.9)
(18.193 124.812 45270.9)
(-17.7698 215.412 45569.3)
(-39.4097 276.674 40728.7)
(-160.326 306.305 36714.2)
(-279.401 216.962 34278.5)
(-316.804 113.866 31483.7)
(-325.233 -3.38976 29103.2)
(-276.577 1.25342 28589.5)
(-126.317 87.8068 30915.7)
(106.483 152.16 37568)
(162.067 160.157 46774.8)
(159.699 101.734 51986.1)
(125.595 53.6632 54859.7)
(101.242 4.74758 56442.3)
(57.937 -25.2894 57253.8)
(30.5028 -41.8992 57341.4)
(-14.5268 -27.9347 57127.7)
(-28.2068 -6.67869 56443.6)
(-54.7347 26.2533 54717.2)
(-58.3738 60.7022 55095.9)
(-76.8525 103.46 56642.9)
(-82.0859 151.383 57902)
(-89.311 208.744 58477.2)
(-94.2789 259.775 58510.9)
(-100.457 307.802 58084.2)
(-106.416 336.53 57248.8)
(-110.684 348.15 56024.9)
(-110.211 328.431 54461.8)
(-96.7706 280.005 52483.7)
(-62.9969 210.305 49834.2)
(-23.5073 96.7587 45729.8)
(-47.591 -96.8177 36135.2)
(-67.143 -196.471 31805.8)
(89.535 -193.923 35391.8)
(223.153 -167.763 39333.5)
(285.606 -163.025 39492.4)
(214.439 -167.83 33227)
(-74.1173 -214.965 24264.2)
(-436.89 -264.416 21692.3)
(47.4274 37.9182 40769.5)
(91.0904 95.753 47290.5)
(69.3989 159.728 46585.2)
(93.0194 208.027 38926.2)
(16.0074 205.88 32687.7)
(-166.454 127.168 31274.9)
(-240.86 -7.58928 29682.4)
(-301.166 -59.4253 28248.6)
(-289.811 -36.9611 27957.1)
(-187.541 92.9599 29003.3)
(-45.4511 165.479 33447.3)
(63.5231 180.71 42257.1)
(81.598 142.409 50179.1)
(75.9447 93.3565 54658.9)
(57.0746 46.7914 57212.8)
(38.5389 22.7896 58527.3)
(18.7653 7.47669 59224.5)
(0.733301 12.9945 59225.5)
(-4.70222 28.2163 58691.2)
(-8.09914 53.3705 57160.2)
(-5.38398 83.4486 57351)
(-7.06255 117.566 58722.2)
(-9.15193 160.285 59583.8)
(-18.4399 209.529 59696.9)
(-36.2365 258.497 59250.1)
(-64.8178 302.871 58313.3)
(-90.7243 327.644 57033.4)
(-118.775 333.698 55506.1)
(-136.463 294.784 53891.5)
(-142.303 227.498 52061.6)
(-132.479 119.36 49661.4)
(-114.471 0.373879 45817.9)
(-120.502 -171.403 36871.9)
(-134.75 -213.22 31995.5)
(-1.05953 -197.845 35320.4)
(124.457 -142.023 40856.2)
(187.206 -127.885 46273.3)
(162.574 -119.336 46609.9)
(21.3101 -157.434 34165.4)
(-333.209 -241.352 21401.5)
(52.7867 -16.8563 42394.4)
(120.195 74.9048 48173.7)
(146.654 106.86 47210)
(140.398 154.005 37830.9)
(183.059 127.969 31716.3)
(-46.916 44.0894 28228.4)
(-181.046 -41.1869 27930.7)
(-232.138 -66.642 27338)
(-261.43 2.70105 27262.4)
(-225.597 107.802 27884.8)
(-134.358 176.289 30876.4)
(-53.6849 180.594 38888.1)
(8.38728 137.575 48069.8)
(20.3347 88.1868 54002.1)
(32.9718 41.6428 57222)
(19.322 12.4753 59094)
(21.6055 -8.35707 59988.7)
(5.25356 -8.84821 60170.5)
(10.3571 -1.98942 59611.2)
(2.52742 21.6017 57990.5)
(10.3129 51.5032 58240.8)
(7.56676 96.4183 59672.3)
(14.4901 156.38 60170.3)
(12.263 232.714 59825.4)
(1.6085 303.568 58830.3)
(-21.214 351.884 57325.3)
(-45.6737 360.172 55615.6)
(-83.0854 334.148 53906.9)
(-126.105 263.739 52424.4)
(-159.893 170.283 51089.7)
(-145.634 47.0649 49205)
(-133.703 -92.4869 45727.2)
(-138.946 -224.235 37660)
(-160.849 -226.236 32374.6)
(-46.4997 -184.895 34588.3)
(68.8072 -89.4307 40496.7)
(148.979 -62.9159 48481.5)
(113.565 -46.9479 52899.2)
(-15.3882 -109.426 43480.1)
(-234.863 -239.897 25159.7)
(11.8808 -60.5943 41809.6)
(116.402 62.3911 48169.9)
(158.767 94.1321 48515.8)
(164.084 87.384 37471)
(206.006 68.2274 30461.5)
(174.362 -14.051 28835.5)
(-115.354 -37.5303 27060.5)
(-220.091 -9.62931 26919.8)
(-243.509 81.0587 27115.2)
(-231.281 159.413 28079.9)
(-192.327 173.696 31420.4)
(-140.532 145.839 38669.9)
(-87.3621 112.296 47163.3)
(-46.4667 84.2461 53201.5)
(-25.3114 53.9858 56829)
(-13.8188 36.0538 58986.1)
(-4.947 23.7115 60205.3)
(3.07289 25.3067 60587)
(19.8868 35.0244 60112.6)
(40.0485 55.5527 58526.7)
(66.9321 79.0061 58540.7)
(92.3023 114.107 59816.3)
(115.144 163.239 59893.3)
(114.409 227.898 58816.9)
(81.5633 280.009 56855.8)
(29.6058 295.632 54533.9)
(-9.29449 277.043 52424.6)
(-51.7975 241.354 50688.8)
(-95.4844 164.154 49563.8)
(-140.894 32.4585 48649.3)
(-151.836 -140.656 47412.2)
(-140.139 -252.41 43965)
(-127.115 -294.373 37867.2)
(-141.056 -245.761 33112.3)
(-70.8486 -168.573 34075.1)
(12.5324 -57.6472 39997.5)
(86.122 -29.3089 49542.5)
(76.2556 7.78084 53308.4)
(-34.6661 -101.948 44497.6)
(-223.645 -248.166 31138.6)
(-47.9918 -29.4239 36174.4)
(81.4913 86.7487 45659.9)
(143.987 62.5526 49750.2)
(144.888 38.7673 37007.1)
(205.387 -21.7616 30140.8)
(240.194 -45.9535 29326.7)
(196.824 -23.5486 29312.5)
(-94.0144 33.4905 29235.4)
(-153.477 51.0644 29608.1)
(-184.009 74.5306 31453.5)
(-169.206 49.4266 35666)
(-151.751 42.6229 41986.9)
(-97.6825 35.1608 48079.1)
(-63.511 26.1318 52862.7)
(-24.2201 4.96461 56205.1)
(-13.4357 -12.687 58430.8)
(9.65874 -30.5972 59625.7)
(16.1463 -38.9297 59858.7)
(38.5557 -43.5601 59024)
(51.4286 -36.6599 57485.4)
(79.0599 -18.102 57774.2)
(101.167 30.9382 58822.8)
(133.242 118.073 58292.8)
(153.189 225.102 56229.8)
(166.033 270.054 53246.7)
(181.913 220.96 50576.4)
(225.346 108.118 48477.9)
(251.916 -28.395 46979.4)
(212.188 -187.522 46102.1)
(121.514 -343.12 45415.6)
(46.7938 -413.178 44301)
(1.64416 -401.768 41543.7)
(-25.2177 -342.679 37458.6)
(-58.1526 -251.321 34396.5)
(-24.5127 -138.383 35918.6)
(56.4588 -58.6102 44808.4)
(155.295 -56.7183 51035.6)
(140.179 -72.4676 43095.6)
(35.9848 -189.882 36976.7)
(-166.439 -252.828 34512.7)
(-70.0389 53.2166 30932.3)
(-61.1614 117.786 36671)
(65.6634 52.795 49034.8)
(108.892 -37.1219 35355.2)
(178.334 -97.6697 29469.5)
(227.771 -74.615 28826.2)
(256.588 -18.8626 28929)
(150.746 16.6171 30173.6)
(-50.6745 -2.77827 32160.3)
(-102.722 6.833 34349.2)
(-136.709 9.24488 37574.8)
(-144.008 17.1786 41829.4)
(-127.597 19.6575 46359.6)
(-101.341 18.7852 50647.6)
(-73.051 6.2901 54165.4)
(-50.2797 -0.522742 56662.1)
(-28.9103 -9.40359 58124)
(-9.71899 -7.4061 58587.1)
(18.9216 -0.761174 57879.2)
(57.7698 18.8618 55943.8)
(119.133 40.2718 56190.5)
(207.344 69.7594 57316.2)
(317.251 80.8076 55573.4)
(403.316 13.3061 51455.1)
(439.363 -161.792 47231.3)
(436.3 -372.119 44546.1)
(451.942 -527.529 43144.9)
(500.745 -600.724 42448.2)
(520.693 -634.189 42142.8)
(456.117 -617.989 41858.6)
(337.592 -565.032 41038.5)
(219.676 -475.903 39548.2)
(134.014 -360.884 37947.7)
(58.9709 -245.716 37724.1)
(22.5956 -160.477 41332.7)
(47.131 -157.551 48945.5)
(112.241 -175.349 50036.3)
(197.523 -167.099 38964.4)
(183.779 -207.125 32184.7)
(24.1837 -222.186 33256.5)
(43.6676 169.59 33254.8)
(-103.67 120.616 34471)
(-91.0533 -47.9874 47147)
(-13.6731 -94.2202 34068.2)
(115.644 -98.4353 28361.6)
(214.439 -36.4134 27689.8)
(266.564 56.078 27554.1)
(176.168 60.9432 28039)
(52.8452 63.0518 31047.9)
(-73.4567 35.8508 34569.8)
(-106.853 7.17958 37683.4)
(-133.844 0.216043 41888.9)
(-110.972 -14.88 46588.7)
(-95.9713 -25.4999 51038)
(-59.4463 -42.1764 54498.7)
(-37.8814 -55.3235 56934.8)
(-2.49203 -72.0839 58192.4)
(22.0716 -89.7409 58291.5)
(63.1411 -117.629 57183.7)
(114.185 -166.556 55918.7)
(201.094 -247.809 55792.4)
(309.447 -361.946 53236.6)
(465.942 -525.368 47714.3)
(686.647 -743.257 43980.7)
(896.785 -929.512 42997.7)
(1006.84 -1008.46 42709.2)
(995.661 -968.534 42407)
(915.701 -877.469 42004.8)
(831.49 -787.66 41592)
(733.973 -710.107 41197.1)
(613.298 -611.671 40849.5)
(475.647 -481.792 40687.1)
(352.869 -344.795 41126.9)
(229.541 -234.457 42996.4)
(127.609 -178.523 47229.3)
(61.9125 -163.395 52952.3)
(33.7832 -151.882 56015.8)
(47.4628 -137.26 48732.6)
(132.547 -160.707 33034.6)
(190.082 -10.2233 31473.5)
(157.996 187.728 37932.1)
(-65.8076 31.2963 42100.6)
(-131.101 -77.9525 51504.5)
(-151.88 -50.3672 39444.9)
(-38.3762 -55.1821 30251.8)
(109.741 41.7461 28376.3)
(249.13 128.786 28181.9)
(210.238 162.359 27444.7)
(27.8513 126.647 28680.1)
(-93.5368 83.7081 31828.9)
(-152.848 35.4253 36381.2)
(-166.236 1.68204 41818.9)
(-154.582 -32.5289 47447.6)
(-130.145 -43.6161 52249.9)
(-101.733 -58.1227 55766.1)
(-79.8064 -59.8963 58120.7)
(-61.2169 -72.1683 59472.6)
(-52.4798 -80.0765 59847.1)
(-50.0491 -106.018 59120.7)
(-55.5051 -139.208 57521.6)
(-59.692 -199.91 57847.6)
(-74.3895 -278.405 58331.3)
(-83.5347 -374.307 55978.9)
(-27.5251 -443.368 51838)
(127.579 -470.981 48150)
(338.565 -449.555 45678.4)
(533.488 -417.625 43874.5)
(658.37 -434.617 42752.8)
(679.9 -464.166 41962.5)
(643.944 -432.571 40691.7)
(575.169 -335.853 38995.1)
(478.733 -227.328 36834.2)
(371.636 -122.508 34811.1)
(246.658 -47.7976 34432.8)
(141.93 -36.1133 37883.2)
(58.642 -49.4633 47073.9)
(44.8858 -107.463 55554.4)
(-25.0396 -120.853 54296.8)
(49.1819 -110.098 38822.2)
(152.153 116.689 33541.1)
(209.269 159.001 39906.9)
(-20.0619 23.6289 46869.5)
(-146.078 -28.6715 52555.7)
(-207.883 18.587 43251.5)
(-156.256 12.8234 34482)
(-27.5627 111.609 31089.8)
(166.814 190.882 30042.1)
(239.041 212.134 28384.6)
(126.343 188.803 28646.6)
(-80.5496 104.362 31213.6)
(-152.408 11.4979 36480)
(-178.148 -52.202 43229.2)
(-150.823 -83.3513 49368.2)
(-125.311 -92.7573 53983.9)
(-85.604 -95.1285 57152.2)
(-62.7346 -93.4912 59157.9)
(-35.3426 -94.481 60170.3)
(-25.6107 -96.223 60328)
(-16.7617 -106.25 59535.7)
(-27.9678 -119.897 58164.5)
(-39.154 -142.022 58571.5)
(-81.1821 -160.758 59658)
(-156.784 -184.653 59082)
(-247.249 -190.221 56997.2)
(-276.774 -175.179 54272.9)
(-224.628 -153.493 52106.7)
(-115.438 -170.484 50778.7)
(36.2504 -194.506 49651.1)
(227.85 -170.474 47414.8)
(366.113 -113.922 45123)
(430.196 -68.9225 42538.7)
(414.541 -20.9245 38441.9)
(369.923 34.621 33762.7)
(264.44 50.3207 31611.7)
(171.846 -12.9383 34346.1)
(60.0285 -102.131 42647.7)
(61.406 -170.411 53198.6)
(15.1747 -160.499 55222.6)
(56.504 -70.8951 42383.9)
(184.418 178.035 32777.8)
(192.862 157.608 37181.6)
(-6.86051 75.2756 47084.3)
(-161.845 82.2201 51190.1)
(-264.63 107.724 45564.2)
(-268.92 114.205 38829)
(-177.225 212.4 35380.9)
(-3.65602 252.861 32829.7)
(148.748 272.834 30107.2)
(135.66 216.24 29169.9)
(-48.698 106.991 32127.9)
(-166.892 -42.6057 37899.8)
(-187.598 -105.257 45089.9)
(-164.018 -135.595 51014.9)
(-134.225 -127.036 55138.1)
(-99.8646 -126.35 57813.6)
(-79.4438 -112.228 59435.5)
(-63.03 -111.765 60267.6)
(-61.5763 -105.087 60391.3)
(-67.1362 -114.885 59685.3)
(-88.9624 -123.145 58173.4)
(-107.652 -143.976 58479.1)
(-138.887 -151.049 60009)
(-186.758 -162.13 60118)
(-247.47 -143.733 59179.6)
(-287.871 -93.7647 57532.1)
(-281.731 -21.0409 55709)
(-238.739 40.4677 54128.9)
(-197.619 83.3321 52735.2)
(-131.729 100.456 51422.9)
(9.12266 111.614 49723.3)
(178.101 109.173 46591)
(300.892 100.107 40690.9)
(335.007 120.308 33565.3)
(277.691 93.8942 31055.5)
(222.162 -15.922 33864.2)
(127.12 -109.097 39000.2)
(88.7515 -157.34 47405.3)
(65.713 -166.888 52364.7)
(74.7748 -44.482 44275.8)
(192.089 174.406 27971.2)
(199.494 185.963 29642.5)
(-19.5438 178.678 39604.3)
(-206.836 233.081 45181.1)
(-322.92 247.29 45456.6)
(-376.465 267.645 42273.8)
(-315.048 309.787 39046.2)
(-176.694 313.678 35660.6)
(-0.672312 304.749 32028.4)
(93.4484 232.855 29834.5)
(-55.557 77.6457 32963.7)
(-163.581 -96.5932 39766.1)
(-180.779 -174.721 47365)
(-145.003 -178.989 52567.2)
(-110.571 -167.078 55781.3)
(-72.6915 -150.251 57833.8)
(-50.0916 -130.426 59060.3)
(-30.2265 -113.684 59631.6)
(-28.9948 -96.9102 59565.9)
(-31.9758 -87.958 58782.6)
(-60.1836 -81.3854 57301.9)
(-82.1143 -80.6351 57621.9)
(-117.934 -68.9121 59404.3)
(-170.013 -64.4076 59874.8)
(-236.729 -48.4984 59559.9)
(-295.495 -21.17 58745.9)
(-327.636 18.0796 57558.6)
(-316.656 47.4914 56231.3)
(-275.977 75.0519 54769.3)
(-204.727 100.326 53149.5)
(-132.486 105.64 51237.6)
(-10.9669 73.4343 48604.9)
(157.051 71.0351 42067.5)
(284.597 126.745 32989.8)
(281.436 50.2298 31350.3)
(260.534 -92.7361 35361.2)
(210.372 -206.814 40616.6)
(177.491 -265.338 45523.8)
(155.08 -236.514 45922.8)
(148.671 -78.7298 35519.4)
(206.914 262.825 22418.6)
(304.427 225.502 23389.6)
(52.5054 267.126 27370.2)
(-186.718 318.131 31198)
(-393.914 355.125 35399.3)
(-501.961 385.09 38213.9)
(-488.189 393.813 38529.1)
(-375.301 354.698 36683.4)
(-190.493 306.801 33217.9)
(-48.4565 219.752 30535.6)
(-94.0485 27.0016 33918.2)
(-179.602 -199.905 42887.4)
(-175.355 -231.594 49265.5)
(-129.975 -229.8 53312.7)
(-94.6927 -203.058 55792.8)
(-60.3376 -182.057 57329.3)
(-40.9468 -151.317 58214.3)
(-28.4589 -130.744 58542.2)
(-32.4801 -106.098 58332.1)
(-42.9076 -92.5712 57477.9)
(-75.7412 -78.5089 55832.1)
(-103.017 -77.6541 56194.6)
(-128.59 -57.9188 58033.5)
(-162.881 -48.9039 58790.1)
(-203.232 -25.2285 58799.1)
(-241.569 4.93786 58366.4)
(-271.794 44.3083 57556.7)
(-283.115 77.9526 56458.9)
(-278.228 99.4653 55082.9)
(-247.879 103.192 53404)
(-182.251 89.215 51268.2)
(-106.136 71.0035 48330.2)
(54.6496 68.5346 42677)
(224.744 57.6775 32112.7)
(254.09 -26.3695 30959.5)
(274.909 -191.764 34419)
(268.695 -303.931 36977.9)
(257.126 -333.694 36120.7)
(220.074 -225.444 30941.5)
(220.265 49.4633 24824)
(235.229 384.056 21840.5)
(433.307 262.599 22945)
(257.45 341.979 25267.7)
(37.2507 363.45 25871.9)
(-209.484 361.947 26282.7)
(-399.1 340.401 27411)
(-492.553 318.823 29475.6)
(-469.614 266.467 30964)
(-330.677 232.278 30858.3)
(-172.008 126.152 30066.5)
(-154.6 -165.662 37690.1)
(-181.587 -291.853 45565.2)
(-140.738 -292.214 50417.7)
(-92.8041 -270.292 53403.9)
(-51.591 -234.446 55193.9)
(-17.1971 -197.004 56228.4)
(3.69648 -158.027 56705.7)
(16.5177 -120.572 56713.4)
(12.3669 -85.5034 56235.1)
(3.33164 -52.7242 55202.2)
(-40.659 -25.177 53415.1)
(-71.6362 -15.1197 53920.1)
(-101.703 4.99141 55898.8)
(-141.583 17.8599 56923.5)
(-184.733 35.1138 57194.1)
(-228.824 53.133 57052.5)
(-266.481 72.3018 56560.9)
(-289.182 84.7582 55754.1)
(-298.11 91.908 54607.4)
(-285.727 84.3707 53090.3)
(-256.73 67.8505 51075.3)
(-200.959 15.1446 48326)
(-119.674 -18.6348 43793.2)
(134.92 -34.1335 31159.4)
(206.264 -125.022 29014)
(198.871 -267.255 29714.4)
(205.479 -324.606 28587.8)
(214.762 -256.136 25926)
(238.967 -42.588 24188.1)
(278.503 246.475 24207.3)
(261.727 464.387 22920.8)
(538.693 293.762 24163.4)
(437.276 377.295 27143.5)
(260.857 350.391 27717.1)
(40.1061 311.212 27169.3)
(-137.429 245.97 26149)
(-296.773 188.538 25884.6)
(-335.028 94.2497 26652.3)
(-283.906 18.8623 26918.2)
(-184.255 -187.291 33620.4)
(-157.381 -347.707 41854.8)
(-141.857 -377.154 47346.7)
(-95.4257 -351.541 50835)
(-50.4497 -312.263 52860.8)
(-11.1715 -263.579 53978)
(16.8731 -219.092 54472)
(33.474 -170.02 54507.4)
(40.4204 -128.288 54107.8)
(31.9478 -85.8842 53232.1)
(20.1995 -40.2487 51374.8)
(-34.0657 -4.75186 49492.7)
(-79.6781 -6.48319 50737.5)