/*--------------------------------*- C++ -*----------------------------------*\
  =========                 |
  \\      /  F ield         | OpenFOAM: The Open Source CFD Toolbox
   \\    /   O peration     | Website:  https://openfoam.org
    \\  /    A nd           | Version:  11
     \\/     M anipulation  |
\*---------------------------------------------------------------------------*/
FoamFile
{
    format      ascii;
    class       volScalarField;
    location    "800";
    object      p;
}
// * * * * * * * * * * * * * * * * * * * * * * * * * * * * * * * * * * * * * //

dimensions      [0 2 -2 0 0 0 0];

internalField   nonuniform List<scalar> 
128000
(
-168262
-165495
-212696
-197558
-259782
-262708
-310380
-318305
-327149
-306922
-273846
-237429
-214415
-191161
-204537
-221335
-244014
-251901
-268919
-249907
-257667
-261366
-249180
-229560
-214038
-223668
-247492
-286978
-328692
-377119
-407983
-426007
-400020
-386910
-318679
-303931
-228114
-219438
-176119
-143455
-171012
-127497
-174404
-161001
-209160
-233463
-284047
-329275
-363802
-371681
-338460
-287612
-248498
-204867
-202108
-225310
-251872
-261292
-289177
-274224
-281795
-290141
-262915
-238896
-219447
-247636
-293613
-355245
-414491
-468684
-486806
-462405
-404805
-347776
-267201
-233209
-157968
-163458
-96517.6
-111047
-216280
-177299
-182744
-177246
-205913
-224738
-266500
-306550
-352988
-387491
-381857
-327772
-292763
-240936
-235653
-247861
-268614
-270102
-278839
-267625
-277830
-276209
-272084
-254442
-244603
-274796
-337151
-403666
-463441
-504396
-490288
-443535
-375658
-320529
-255213
-222494
-178145
-163603
-142548
-174096
-203755
-164517
-178142
-153940
-185338
-207855
-255465
-308550
-364533
-414318
-440202
-393330
-356318
-296149
-287201
-290782
-303727
-305887
-309050
-306407
-315629
-329130
-332862
-319473
-323964
-338409
-428101
-482613
-546303
-565032
-525327
-451828
-370008
-299790
-219263
-186816
-122165
-133072
-109759
-131037
-265752
-218085
-209004
-190189
-186454
-203439
-233312
-281241
-338221
-399330
-439372
-417015
-394993
-340852
-344279
-323364
-339904
-313487
-318202
-309945
-329563
-337971
-353514
-351081
-366976
-384671
-467059
-510811
-564944
-553409
-499449
-413256
-335437
-262473
-206592
-173643
-149411
-169239
-156175
-208443
-264170
-240108
-228144
-212118
-205736
-214486
-236816
-279660
-326886
-389513
-431990
-438060
-411520
-384209
-386209
-392861
-376747
-368215
-350818
-347404
-361676
-380795
-400720
-404390
-415378
-428942
-489124
-521552
-563074
-537674
-478508
-393927
-316537
-249899
-196283
-173173
-152703
-166453
-163757
-195226
-308464
-290561
-270093
-260448
-236492
-235371
-238133
-262451
-305398
-330738
-413092
-362831
-389756
-347933
-367229
-357640
-376774
-342221
-337339
-332228
-339754
-353609
-377360
-389233
-397086
-408505
-449345
-471792
-499782
-476742
-419345
-347745
-289296
-234793
-207755
-193143
-193438
-216389
-216501
-264218
-306771
-328549
-308485
-311733
-287012
-282441
-270514
-277168
-300191
-319870
-352611
-362772
-340156
-347338
-357296
-361567
-361318
-347729
-342753
-332723
-339455
-349039
-372161
-376273
-381669
-385148
-404637
-412194
-436005
-416581
-376704
-323982
-282042
-243977
-231481
-222138
-236797
-242468
-257277
-277431
-306796
-351696
-347203
-362318
-337707
-320516
-298592
-290147
-292154
-298744
-314049
-321117
-295281
-299956
-303750
-325028
-326005
-323348
-311340
-324948
-309055
-330270
-324397
-344247
-335807
-346527
-338844
-359753
-389947
-369495
-344918
-306340
-283828
-261838
-266471
-267182
-288520
-295764
-313064
-323624
-278926
-344765
-373502
-402830
-398788
-392206
-340944
-314968
-308919
-305012
-310398
-312760
-315105
-297335
-325650
-312611
-334217
-323617
-324623
-319394
-327652
-319164
-333170
-330352
-324956
-325286
-325092
-356615
-358259
-343891
-325664
-299612
-293281
-281951
-301323
-307048
-341096
-336222
-356008
-334229
-241193
-297159
-342818
-406690
-412773
-403712
-385553
-336992
-299324
-291352
-280338
-283267
-280028
-287564
-290733
-312029
-302803
-309755
-293830
-310734
-297693
-317095
-309954
-329430
-321923
-331594
-317542
-342818
-336318
-330189
-318024
-306794
-308076
-310499
-339415
-345998
-379687
-373001
-380100
-343501
-213854
-253711
-292641
-355888
-385941
-409933
-361236
-333794
-328611
-308812
-298341
-285840
-287026
-282189
-296450
-297069
-308334
-300779
-301659
-301627
-308322
-308364
-314509
-315899
-315831
-319099
-322946
-332053
-330155
-320935
-316157
-303461
-314351
-316169
-340508
-354966
-394535
-375515
-382059
-331245
-187649
-213395
-258216
-316126
-357262
-373686
-353573
-311505
-260623
-277826
-268595
-263279
-254736
-258748
-257040
-268557
-265982
-276626
-269521
-287398
-282105
-301660
-297282
-316371
-315502
-332900
-330528
-344056
-337771
-335107
-323536
-320185
-316692
-324378
-346705
-369054
-398136
-381870
-373405
-318096
-182861
-180207
-214146
-269160
-324158
-367294
-344106
-333263
-301445
-299647
-295387
-280684
-274834
-269277
-273567
-272382
-278687
-277375
-281914
-282941
-287741
-291616
-298028
-307260
-317331
-329218
-339158
-345759
-346119
-330122
-325190
-299844
-313704
-305585
-340574
-348754
-379737
-349071
-336891
-287589
-203547
-209188
-235353
-274177
-322391
-366193
-345945
-333749
-287540
-295755
-282939
-268106
-251477
-249332
-243504
-251073
-246547
-257370
-253020
-269525
-267842
-290622
-296962
-325861
-339203
-363900
-369651
-381165
-373082
-363038
-340222
-322869
-315625
-320819
-342048
-344540
-356758
-320642
-312719
-270287
-218362
-221721
-242415
-281067
-315156
-376421
-352896
-348948
-323415
-310121
-315637
-291906
-278468
-268509
-268218
-265485
-267745
-264800
-266799
-266255
-271198
-278180
-291139
-311406
-335829
-360862
-382377
-398475
-397673
-370686
-349173
-323220
-310216
-317464
-327531
-319295
-312101
-270844
-262818
-238450
-231259
-241318
-256712
-284624
-315370
-351767
-349317
-331613
-302816
-301523
-284256
-274736
-251881
-247446
-236677
-241217
-233483
-241174
-235234
-248938
-250859
-279047
-304830
-357804
-400476
-434698
-446515
-456251
-447231
-424763
-380188
-344285
-329119
-325753
-329118
-315368
-307500
-264729
-271342
-232077
-240901
-251032
-258990
-290922
-302173
-349100
-327048
-326871
-314936
-312574
-308980
-291214
-280222
-268427
-265854
-259107
-258205
-251631
-250113
-245952
-249495
-258650
-280788
-321423
-367907
-410413
-455946
-507422
-504474
-437761
-389303
-345812
-320684
-306153
-304105
-290354
-273479
-252778
-237622
-202362
-235230
-257605
-251902
-284211
-294189
-322099
-310154
-312038
-284299
-289086
-270423
-267403
-249036
-246238
-231566
-230944
-216784
-216536
-203035
-207014
-206062
-237216
-302551
-423573
-525509
-552201
-545713
-541267
-540539
-506918
-417584
-355248
-318957
-299490
-296788
-283428
-270765
-259687
-253134
-214347
-228969
-246603
-251001
-292735
-304712
-334106
-325790
-309346
-314649
-303506
-304148
-289308
-283781
-271383
-266534
-256019
-251314
-241257
-233818
-221596
-217001
-217377
-251650
-321658
-396178
-439670
-482603
-532322
-519063
-443598
-365376
-304874
-278269
-267095
-270831
-258870
-242649
-234795
-202332
-159890
-228942
-256105
-253474
-296261
-313846
-346045
-319189
-316048
-278103
-290776
-270296
-271362
-251612
-246017
-228008
-221402
-200778
-187599
-158374
-140398
-117494
-135611
-258026
-443414
-578716
-600571
-554833
-505484
-482204
-420999
-349349
-293203
-271979
-264760
-278007
-265462
-254614
-222554
-207837
-165488
-234547
-262056
-258031
-315357
-335579
-368519
-354121
-335770
-320162
-305735
-304023
-291174
-285039
-272069
-265930
-256114
-249318
-239753
-229079
-218774
-212277
-215333
-260431
-351134
-447727
-484629
-522072
-562184
-512072
-435365
-359925
-304756
-280681
-271595
-283826
-267082
-255370
-226469
-221935
-187431
-209830
-227392
-234192
-300883
-323238
-380433
-356908
-349622
-302044
-301215
-284664
-276864
-258290
-249399
-235367
-230899
-218713
-214801
-204843
-205086
-211344
-242316
-322817
-446272
-563257
-599605
-570135
-516689
-524691
-472141
-407661
-347491
-326784
-309899
-318943
-294387
-279325
-228839
-219809
-191220
-200004
-213021
-229171
-303327
-339948
-385121
-375401
-353360
-326519
-305607
-307633
-290074
-280866
-269426
-264328
-258044
-253574
-249526
-244921
-245172
-247900
-262050
-287926
-335731
-389323
-432416
-463110
-498363
-466911
-408382
-368794
-337237
-322733
-313930
-325478
-299718
-284574
-232559
-224178
-194440
-191900
-206041
-218849
-295256
-344193
-396068
-375851
-356054
-309970
-291098
-291576
-272485
-260646
-251921
-243991
-242024
-237796
-238803
-239313
-245902
-258865
-280432
-318069
-364281
-416637
-440942
-452642
-433272
-433582
-390935
-370946
-320192
-336748
-331178
-348637
-330032
-313167
-246236
-239371
-216212
-218652
-256013
-292274
-370957
-404676
-430936
-399973
-357248
-316581
-296825
-289976
-278889
-270757
-264151
-260278
-258390
-256016
-255965
-253720
-258207
-260234
-272373
-284492
-308155
-331748
-356503
-371052
-383513
-372206
-353181
-325513
-312973
-304504
-313764
-342918
-333415
-337185
-285437
-266309
-231063
-244546
-304097
-344620
-431671
-462983
-486006
-436367
-386558
-316959
-302238
-285167
-271509
-259627
-254005
-250671
-250795
-250921
-252861
-256052
-261925
-272477
-283863
-303281
-318909
-343890
-352887
-369277
-360491
-368127
-342641
-341880
-308526
-324993
-336004
-370663
-379288
-387903
-337641
-315332
-264708
-290001
-368037
-417259
-497315
-522216
-524158
-464650
-379951
-336034
-322900
-292066
-278003
-264792
-263344
-259383
-261748
-260324
-261529
-258854
-264262
-264387
-274727
-279798
-290816
-300678
-310544
-319261
-323798
-326654
-317902
-317055
-307915
-325875
-310387
-368913
-374421
-404032
-363514
-345921
-287314
-328672
-419813
-462073
-540381
-538677
-536072
-469284
-409741
-348963
-317886
-285391
-272285
-263055
-259931
-261896
-263413
-264377
-265222
-267308
-268802
-279499
-283362
-296097
-296822
-312260
-309369
-325284
-314847
-330521
-315310
-325557
-312194
-334664
-345402
-375397
-392176
-417092
-388599
-377568
-318515
-371775
-456867
-481989
-528856
-512373
-491331
-428253
-367014
-323868
-301595
-277795
-274800
-264166
-272843
-269771
-276639
-277448
-279253
-276759
-275808
-276474
-282026
-284306
-285933
-290363
-287204
-291844
-292250
-303586
-297731
-304844
-293717
-313284
-308095
-356615
-356439
-395602
-375609
-379237
-330507
-385738
-445849
-439357
-465667
-431557
-415974
-362765
-332212
-301689
-288879
-276991
-276951
-277575
-274024
-285205
-287982
-290551
-287628
-289979
-288929
-300429
-285613
-298645
-292347
-308390
-295943
-310775
-286645
-316082
-302822
-313031
-294179
-307688
-300494
-326575
-332332
-358628
-351803
-364695
-337264
-384909
-400600
-382378
-382485
-352027
-336089
-299288
-284157
-271719
-275547
-275302
-286395
-270142
-293153
-289347
-294918
-294252
-294747
-294388
-298346
-294989
-291058
-295424
-292631
-296453
-282291
-286306
-278126
-301201
-304549
-308916
-283188
-284873
-265449
-281948
-278377
-301878
-301388
-317861
-318857
-345416
-334265
-309410
-303472
-274089
-264328
-247978
-254025
-261763
-278769
-286775
-292009
-288840
-288441
-297406
-300952
-298496
-297612
-292218
-301973
-303768
-294129
-312480
-307997
-326328
-312915
-322509
-298243
-322766
-319105
-331293
-296828
-288148
-259140
-258344
-249061
-263012
-263165
-275864
-291240
-322085
-272027
-258164
-235680
-214544
-210948
-210285
-231384
-254830
-278365
-301799
-289186
-295306
-302498
-307381
-302668
-303304
-289028
-293714
-284526
-298474
-298332
-313361
-313967
-329101
-319799
-332078
-318553
-347421
-335451
-356229
-304717
-285410
-244422
-229695
-215925
-216274
-231187
-228598
-265585
-249572
-201295
-200259
-171991
-172420
-174779
-200135
-235415
-271768
-315148
-320389
-328766
-329616
-325965
-323433
-317459
-304950
-302105
-296710
-292772
-311327
-311319
-327839
-329489
-355097
-343515
-357679
-342228
-380108
-382298
-393700
-348989
-308514
-265343
-228294
-209573
-194472
-201958
-198401
-221190
-241572
-175717
-180198
-147564
-154316
-166187
-199903
-239289
-289063
-321605
-342347
-338661
-333546
-316698
-304775
-289029
-289146
-276718
-282857
-269719
-295107
-300366
-315056
-312056
-325716
-321310
-336959
-338191
-372912
-387893
-401821
-366270
-321674
-272455
-231738
-203578
-181701
-196358
-181517
-221049
-163912
-116703
-141184
-104105
-150224
-163233
-220059
-266650
-317635
-356924
-370009
-367965
-350357
-314130
-291339
-281973
-275801
-278373
-277639
-270064
-284870
-287336
-300334
-293542
-302539
-289500
-296790
-302308
-351750
-376873
-407257
-388430
-349632
-307519
-251489
-227419
-175514
-178234
-160166
-168636
-179651
-135318
-146363
-133834
-176780
-189082
-242968
-273132
-322551
-350607
-357310
-346089
-315692
-280588
-258019
-248798
-254061
-256829
-263555
-251317
-257548
-262268
-274905
-269924
-271690
-260919
-256154
-262283
-302205
-331812
-372672
-374046
-345177
-312940
-269575
-243531
-211657
-197780
-180171
-203592
-125875
-79763.6
-135047
-116549
-181613
-194516
-258308
-295762
-341629
-357767
-350429
-331002
-299020
-271466
-244682
-244377
-240696
-260067
-274779
-262715
-254369
-259378
-267318
-261349
-253220
-240805
-219958
-226895
-264033
-297757
-340093
-368847
-362243
-340627
-290006
-266575
-205595
-206537
-151153
-154070
-126479
-127068
-179499
-163535
-238237
-232648
-298091
-300714
-330582
-318184
-308444
-285962
-264936
-244833
-234553
-223735
-235956
-245468
-259065
-244589
-250403
-247398
-259658
-255188
-248190
-239982
-220991
-215539
-233228
-255859
-283099
-317742
-326383
-340952
-307915
-307237
-256296
-247715
-218282
-185994
-620214
-621178
-652657
-656308
-704323
-723266
-762854
-773264
-767674
-720917
-637883
-523169
-375819
-171215
-164947
-284146
-366657
-412140
-450910
-452448
-476007
-404852
-226643
-44803.2
12039.5
-181321
-429916
-609515
-737962
-834788
-892960
-917517
-899495
-876413
-818514
-788426
-729449
-711185
-679377
-658531
-621695
-598723
-626946
-630155
-671537
-704929
-754623
-798994
-827765
-819109
-749902
-631000
-465293
-190112
-160881
-296973
-360525
-367912
-376270
-374508
-392421
-345872
-259172
-137312
-451.668
-190823
-524150
-728600
-862046
-948600
-979867
-962039
-910829
-853616
-782974
-741409
-683476
-674305
-633422
-639890
-650031
-626428
-631633
-636392
-666028
-696241
-742731
-789309
-836202
-861037
-824756
-712137
-550101
-257749
-293328
-383926
-415722
-380267
-314863
-253373
-262830
-297016
-306757
-273252
-157444
-211612
-591264
-806418
-933908
-996458
-994194
-952293
-889355
-831604
-769990
-731176
-690628
-672695
-656975
-675774
-652048
-627537
-634461
-625518
-651896
-679854
-727283
-780430
-836327
-884151
-882176
-788013
-638146
-389101
-502262
-528386
-494141
-430209
-360385
-335060
-377041
-441487
-520265
-551299
-489174
-347402
-680109
-885300
-998534
-1.03042e+06
-1.00431e+06
-940775
-870521
-808482
-743357
-708808
-662055
-660886
-646758
-662627
-695902
-668194
-661695
-650827
-651777
-668960
-699559
-743712
-794477
-849287
-863689
-803588
-687852
-544480
-652913
-631038
-563872
-494305
-457168
-448522
-487571
-540531
-644005
-710276
-710712
-557387
-732855
-911065
-998801
-1.00506e+06
-957738
-888002
-827547
-773737
-731288
-704580
-685036
-692558
-685358
-717667
-707151
-695671
-687176
-673067
-664138
-667194
-683634
-715224
-750062
-794317
-832353
-790431
-700314
-681845
-767420
-733782
-652845
-593248
-536845
-525616
-562784
-624667
-699159
-784015
-825747
-751747
-766999
-911731
-968358
-953408
-897453
-837147
-791905
-756596
-727992
-715283
-703521
-710810
-709163
-729113
-738371
-739278
-727448
-713578
-686406
-672637
-666883
-678208
-696926
-697477
-732840
-695307
-669732
-723187
-796105
-750906
-694327
-606734
-549180
-531149
-569993
-635391
-714862
-792263
-857274
-857217
-767390
-861574
-888065
-846725
-802211
-772609
-761498
-750733
-748598
-747452
-750640
-763505
-761182
-783697
-735663
-772215
-765702
-757105
-721367
-692902
-666584
-662787
-668375
-660362
-652521
-636122
-603175
-705701
-755269
-728512
-669148
-594336
-524538
-502375
-540151
-610730
-694068
-766996
-832850
-861666
-747020
-775766
-757996
-730730
-731468
-744489
-764494
-774982
-786726
-790443
-802393
-804369
-805538
-804652
-716374
-785367
-800619
-802332
-758521
-707847
-656368
-637982
-632963
-619270
-592536
-546219
-480239
-572125
-607252
-612811
-578838
-523810
-452983
-446979
-472939
-528532
-578982
-642463
-688337
-720165
-643165
-607649
-619399
-649407
-703783
-750130
-792234
-813776
-833345
-840585
-855834
-855120
-851456
-833600
-657500
-756049
-810436
-836016
-808034
-748236
-648951
-607949
-600188
-592517
-574396
-533753
-478917
-436255
-478346
-488057
-489190
-438962
-381254
-375722
-427327
-466818
-500089
-513329
-517817
-508761
-459087
-511788
-578719
-653418
-727847
-784065
-830381
-848153
-867989
-873466
-895715
-882964
-874127
-828558
-567651
-669899
-747282
-810685
-798662
-770271
-655311
-573873
-535777
-535314
-523669
-500798
-444205
-386388
-341090
-348251
-336352
-301642
-254259
-300404
-353687
-398801
-397569
-405639
-397646
-402765
-429970
-524349
-610309
-696439
-769087
-822539
-857694
-864021
-881840
-882296
-890931
-874912
-862208
-804863
-457544
-550986
-629950
-706804
-732564
-731709
-651424
-547300
-490473
-484152
-481611
-481754
-454485
-386792
-308039
-228578
-194389
-159069
-180349
-267004
-331093
-347140
-342717
-348678
-373356
-428081
-499035
-587935
-669744
-740402
-799986
-834068
-851481
-833396
-855945
-806872
-820708
-817638
-816834
-753369
-306744
-369395
-448435
-534051
-595944
-633727
-629080
-564823
-394779
-398325
-385472
-411266
-420372
-395317
-330522
-248275
-159542
-132302
-186670
-284184
-318837
-335496
-335861
-378525
-427316
-500143
-567636
-648886
-714671
-773424
-811671
-830710
-810329
-782204
-747124
-733104
-738625
-744795
-747776
-683419
-194694
-192783
-283853
-454370
-615231
-731517
-749516
-693062
-542847
-392050
-332769
-337518
-381374
-395784
-378561
-331777
-268562
-236238
-273847
-328193
-352172
-362076
-381750
-424009
-478648
-542914
-609388
-676123
-733920
-771073
-795169
-778773
-738047
-696094
-677630
-631594
-623083
-608394
-628585
-579778
-307238
-302763
-377363
-507545
-623247
-732757
-758175
-709180
-561355
-418387
-276854
-228818
-280625
-337641
-354396
-348134
-319048
-307784
-319660
-361195
-373381
-387977
-405137
-455139
-506029
-571937
-631108
-696619
-744007
-773856
-771290
-737856
-655495
-692698
-702828
-587451
-452450
-383023
-459118
-455527
-353279
-349954
-395962
-481963
-572131
-666841
-701316
-677146
-572488
-448998
-304549
-168534
-193889
-281426
-339928
-358073
-358560
-352789
-360994
-373283
-375851
-374789
-389606
-425217
-476399
-541746
-613767
-687722
-740302
-751551
-733339
-676970
-586232
-674764
-730392
-661258
-442915
-192398
-191150
-298134
-377650
-350663
-381528
-416644
-489772
-588330
-628338
-605547
-524948
-431847
-283875
-127315
-97874
-197729
-278791
-325951
-333873
-340110
-336541
-345002
-336076
-336444
-345251
-388223
-450690
-531769
-610595
-692850
-746269
-747485
-694395
-598553
-542544
-636816
-712925
-670978
-459889
-148534
-53664.5
-123811
-378158
-312229
-312578
-354685
-443602
-536803
-557708
-542810
-483951
-400015
-269552
-115015
-79700.3
-168148
-264267
-317088
-338265
-335698
-323736
-305355
-279751
-244739
-222133
-246622
-335166
-452637
-575621
-702308
-763891
-721914
-636418
-535076
-495475
-568373
-640818
-593931
-354691
-91126.7
-8155.42
56906.4
-365421
-270468
-235731
-308265
-418769
-490633
-500803
-479160
-412368
-340028
-228544
-147208
-144721
-207624
-264485
-306990
-307639
-294091
-258492
-233634
-176022
-110520
-83703.4
-183110
-370281
-505441
-601141
-689349
-741684
-724122
-605940
-506053
-475625
-527168
-594601
-488279
-152358
-66885.2
-110523
52838.8
-374892
-276062
-203577
-330322
-442531
-511481
-521730
-479600
-438361
-370235
-302773
-250229
-245100
-264751
-299734
-323015
-325766
-300875
-255694
-198446
-88031.8
100054
165264
10217.6
-231883
-418909
-563614
-676742
-702108
-633080
-533858
-460346
-451257
-495943
-536617
-341502
26286.5
5471.1
-118215
-26911.9
-390981
-331379
-223520
-408410
-503594
-575703
-578980
-543370
-446485
-404248
-329284
-280858
-251314
-264834
-287622
-306960
-284080
-234069
-151012
-42743.4
226994
434605
208205
-181142
-452784
-574665
-608707
-620007
-617666
-560920
-483325
-435232
-453876
-519726
-563728
-396935
-38302.6
118251
-70272.3
-62330.2
-245333
-260534
-219344
-479145
-612947
-660753
-674522
-632731
-534617
-444819
-361966
-289481
-262790
-275166
-306343
-323760
-316824
-280997
-224344
-165305
-24321
195753
236066
21333.1
-253968
-433942
-574435
-669820
-646845
-573763
-482002
-432838
-467971
-567158
-661442
-583030
-242268
58011.7
-35933.6
-746.986
2691.63
-103836
-192611
-516666
-689505
-759026
-756305
-719434
-581329
-472736
-353299
-272680
-250652
-278956
-310244
-325623
-315683
-293079
-256781
-229284
-168053
-73828.9
-40260.6
-156006
-381127
-554509
-638413
-631701
-665129
-627409
-523024
-460200
-521397
-655306
-766297
-728890
-403701
-17475.3
-91.6667
60928.8
138982
77756.6
-104452
-487562
-724568
-826469
-840835
-794789
-653558
-495525
-374437
-298996
-303944
-339753
-367972
-377085
-371272
-355186
-335016
-326202
-302446
-258803
-228175
-255925
-361994
-495271
-611334
-699195
-705410
-633920
-514597
-449017
-538055
-701179
-796445
-761499
-507867
-112970
-2498.54
-30156.8
6725.45
51584.8
33.5686
-295884
-606759
-804912
-863043
-836094
-686448
-494215
-376994
-335863
-352137
-383416
-400003
-404024
-395797
-387324
-381534
-386799
-388419
-381143
-392755
-428760
-499811
-578764
-652474
-694281
-723250
-680257
-588882
-459516
-565405
-725033
-788485
-694061
-432199
-133468
-125413
-222034
-280372
-328614
-342513
-402467
-498470
-639372
-754123
-795486
-692258
-494073
-401913
-399913
-426985
-447939
-453877
-447364
-434178
-423463
-419308
-430640
-434474
-435064
-447626
-480731
-527679
-587390
-645585
-696684
-717873
-703644
-643932
-514905
-553147
-662681
-662672
-529141
-420589
-354907
-396438
-385011
-496254
-601644
-662098
-740602
-767945
-792568
-765290
-715046
-614669
-484855
-451530
-466428
-485443
-491536
-482288
-464848
-444391
-430083
-428905
-446040
-460928
-464642
-490055
-525096
-572830
-615886
-666709
-700217
-735990
-733270
-717776
-622787
-586979
-628954
-637198
-628862
-629824
-604464
-591935
-527834
-654712
-776224
-846738
-913910
-924595
-912252
-853931
-752795
-638696
-550335
-530469
-541260
-543359
-533511
-507123
-475589
-440326
-411650
-393667
-423511
-441858
-451483
-472334
-507645
-547133
-588555
-633263
-675191
-715239
-738120
-751368
-726937
-718440
-661626
-712997
-714939
-749153
-734464
-712463
-632096
-764335
-884154
-942318
-995633
-976532
-951786
-892393
-761329
-658468
-607439
-593718
-593312
-577995
-548184
-506719
-456840
-405241
-352619
-325062
-369475
-410041
-427581
-459289
-490058
-531133
-561080
-608334
-642864
-697761
-730688
-770625
-776622
-791083
-787374
-823564
-794626
-825452
-815339
-793323
-714919
-843063
-942457
-976896
-1.00442e+06
-983663
-935013
-850709
-739324
-676997
-652796
-638697
-626947
-591069
-550478
-491238
-432477
-367540
-331799
-325612
-362736
-388246
-402515
-427941
-453355
-478557
-496126
-532869
-573495
-633213
-685338
-741146
-771301
-804139
-810398
-849169
-860102
-873746
-851820
-833427
-765109
-875555
-942640
-949218
-958707
-917887
-874225
-799149
-735595
-698452
-683091
-664322
-637961
-594003
-539525
-487332
-426041
-394405
-377089
-388449
-400975
-415009
-409887
-440158
-451127
-472991
-466716
-476435
-488287
-561513
-624816
-699483
-743738
-790422
-808344
-836280
-846567
-866415
-853934
-841540
-793196
-876213
-901757
-892711
-882823
-845151
-807541
-754781
-721032
-701452
-691774
-669614
-640676
-581869
-552251
-498688
-469463
-448410
-439469
-442132
-446602
-444054
-437207
-449885
-461276
-483507
-485926
-491396
-457980
-467898
-544870
-630596
-686769
-741135
-763434
-792128
-799537
-816479
-811982
-809156
-788723
-840191
-836974
-818889
-804521
-770967
-745294
-717362
-707785
-702059
-695046
-671164
-636831
-596310
-592789
-572308
-537931
-501900
-478680
-470824
-474764
-454849
-440500
-464819
-495711
-558423
-603723
-645954
-612827
-530247
-535314
-598885
-646177
-699391
-722808
-746467
-753647
-766379
-765525
-766680
-765752
-803520
-770386
-755882
-733763
-709857
-695737
-686142
-690668
-692871
-685472
-673351
-652930
-640601
-672840
-659744
-607898
-550063
-495301
-483752
-459677
-441581
-442782
-488890
-552215
-638856
-703241
-748576
-694316
-611817
-608059
-629066
-635127
-668313
-681500
-697096
-703023
-709497
-719467
-716767
-735671
-737880
-700610
-692868
-669801
-663204
-660279
-673248
-692284
-709300
-727695
-728727
-695096
-664672
-689946
-693796
-637013
-554706
-491950
-466298
-447775
-437955
-438514
-487537
-568509
-685928
-752684
-783760
-684142
-663916
-690137
-699611
-683491
-681839
-679400
-674547
-673779
-670304
-676713
-676117
-692957
-707675
-660880
-657098
-635152
-638268
-647631
-672452
-699909
-729396
-742485
-727552
-690823
-633854
-599030
-620938
-571193
-494057
-418203
-386115
-374235
-388414
-389081
-439647
-525958
-634258
-714222
-716910
-603910
-663997
-722847
-750112
-728362
-707540
-686953
-668649
-655711
-644576
-653009
-646907
-673825
-645913
-610128
-618464
-598791
-628549
-645252
-689057
-726412
-762108
-779114
-743013
-696710
-606561
-471295
-476277
-476283
-437602
-391897
-335224
-287291
-287707
-293891
-377036
-478327
-565456
-599868
-577985
-470959
-637130
-722601
-775662
-772187
-744045
-717173
-681099
-662729
-630819
-629719
-620617
-631295
-638835
-607046
-611419
-608896
-641640
-662325
-707857
-738855
-773810
-778577
-746880
-685161
-567314
-375214
-277510
-290053
-300387
-294135
-258019
-208087
-217002
-255441
-351048
-435837
-481562
-479882
-431531
-359318
-568654
-673494
-748954
-769571
-752558
-727521
-694207
-670825
-646163
-634150
-623224
-639486
-601413
-572982
-602325
-599698
-645845
-667856
-718693
-751988
-780494
-774392
-734857
-667756
-558037
-389861
-187390
-146101
-190427
-271986
-343709
-316062
-240165
-239956
-305270
-372969
-413056
-406307
-335202
-310460
-501031
-612672
-697926
-748840
-756539
-742198
-705942
-683077
-642395
-637308
-606097
-609236
-597955
-597124
-628619
-628693
-679684
-690310
-736243
-742373
-751049
-720694
-674291
-601160
-503488
-375738
-214712
-44936.7
-28727.2
-179178
-346668
-411131
-384102
-338305
-356016
-392027
-403093
-390621
-320729
-299668
-432482
-531966
-612166
-677268
-709353
-727829
-710242
-704059
-670288
-660497
-641280
-624390
-613817
-614685
-644564
-643477
-683539
-692991
-720634
-719508
-703497
-651649
-572197
-478839
-390865
-266597
-281823
-335083
-364602
-386274
-407486
-388842
-403113
-368856
-282970
-206806
-172070
-263677
-405733
-529163
-642116
-739989
-806982
-843627
-840093
-831108
-787980
-770689
-723197
-713679
-686874
-669037
-613572
-590446
-617149
-616489
-650908
-675543
-714833
-748230
-766120
-749641
-679657
-577013
-477402
-299248
-285297
-340484
-361136
-366377
-380403
-372177
-386403
-356377
-305346
-259632
-199520
-309687
-508413
-645576
-767531
-859525
-901464
-895474
-857178
-812996
-755799
-726518
-679859
-678449
-642332
-652006
-639964
-616053
-619630
-620240
-643315
-664962
-700587
-734899
-768032
-781599
-742082
-644259
-555791
-363319
-382263
-396590
-406704
-392333
-361736
-323927
-328596
-338373
-332837
-328512
-308742
-350950
-589173
-719871
-836273
-906884
-916434
-887206
-837693
-793158
-745051
-718275
-688461
-678375
-667171
-689571
-636493
-612548
-617477
-605171
-626267
-647644
-686677
-729385
-772172
-807187
-802584
-722726
-641489
-461475
-517622
-495250
-474520
-442600
-404167
-391559
-420083
-456715
-495516
-513003
-524769
-461283
-696975
-814102
-913387
-953539
-937812
-885321
-826566
-775285
-721312
-696616
-659389
-665179
-655754
-673779
-672249
-645862
-637592
-624605
-622966
-636269
-661868
-699162
-739889
-785546
-795251
-751542
-685921
-566106
-612341
-571664
-534318
-489520
-464642
-456606
-486047
-518799
-584486
-618470
-654324
-597340
-752426
-861151
-931518
-943745
-908020
-847097
-794116
-747005
-711417
-691853
-679168
-692281
-688847
-721612
-674458
-664810
-654598
-640417
-631700
-634275
-649157
-678023
-709572
-748388
-782279
-756626
-693134
-653864
-686408
-653095
-600256
-562337
-516697
-507340
-535729
-582293
-633733
-684781
-724684
-715815
-768956
-873734
-915043
-910463
-865984
-812246
-768720
-734649
-708725
-699699
-692272
-703284
-704229
-723376
-695027
-698923
-684943
-673621
-650425
-639996
-635920
-647240
-666821
-671736
-710674
-680307
-652587
-658155
-687872
-652669
-623454
-561366
-523053
-511501
-538898
-583767
-643215
-693292
-735750
-764031
-739235
-825245
-849932
-828573
-793268
-762058
-744885
-729934
-726259
-725829
-730430
-744457
-744307
-764262
-683159
-722609
-712557
-708516
-680944
-660896
-639492
-636403
-641997
-640179
-642015
-639039
-589932
-636561
-651876
-632969
-595426
-547338
-503280
-490943
-518616
-567743
-627244
-674899
-712497
-748331
-692970
-751231
-749248
-739577
-737043
-737601
-745350
-748271
-756503
-758992
-769908
-771502
-775163
-771309
-657070
-727734
-736218
-743025
-710761
-677124
-636766
-619070
-608460
-595784
-578509
-556628
-489499
-539158
-544713
-546736
-521891
-488112
-444250
-448327
-465783
-506198
-541488
-588680
-617013
-650120
-613634
-626087
-649533
-672315
-707243
-734376
-762458
-776391
-792846
-797571
-809158
-806641
-806946
-785436
-597855
-694617
-738571
-766202
-753158
-714775
-639674
-603406
-584556
-569897
-552649
-528199
-488334
-450701
-474107
-463705
-460377
-427586
-395041
-394645
-430210
-459610
-491958
-507796
-515954
-522052
-495092
-560665
-610715
-662727
-713777
-751892
-787049
-800012
-818810
-820031
-838003
-823381
-818498
-768289
-518124
-613395
-677440
-742843
-739722
-731362
-650844
-586491
-536917
-521779
-498443
-478798
-438839
-408839
-379751
-378981
-360860
-338692
-304690
-335250
-364392
-403150
-414554
-437629
-445173
-462070
-481874
-557353
-616461
-679345
-733179
-773912
-803757
-810036
-828500
-831913
-836752
-814464
-800178
-734435
-439969
-523826
-590333
-668479
-700574
-710670
-647310
-567406
-518112
-492395
-466701
-452606
-427559
-383464
-340083
-290447
-271343
-243935
-249379
-297842
-338598
-359172