/*--------------------------------*- C++ -*----------------------------------*\
  =========                 |
  \\      /  F ield         | OpenFOAM: The Open Source CFD Toolbox
   \\    /   O peration     | Website:  https://openfoam.org
    \\  /    A nd           | Version:  11
     \\/     M anipulation  |
\*---------------------------------------------------------------------------*/
FoamFile
{
    format      ascii;
    class       surfaceScalarField;
    location    "800";
    object      phi;
}
// * * * * * * * * * * * * * * * * * * * * * * * * * * * * * * * * * * * * * //

dimensions      [0 3 -1 0 0 0 0];

internalField   nonuniform List<scalar> 
376000
(
-0.00271152
0.00122026
2.56161
0.0825743
-0.0896859
6.47089
0.150886
-0.0740092
9.66691
0.282728
-0.139945
13.3219
0.449193
-0.17506
17.1148
0.629867
-0.191306
20.7591
0.811103
-0.192178
24.2161
0.958508
-0.159999
27.2633
1.03775
-0.0934637
29.7024
1.01865
0.00291745
31.3983
0.926607
0.0736184
32.5914
0.784239
0.122043
33.1082
0.564211
0.207305
33.4299
0.278033
0.326232
41.0968
0.0895531
0.223271
56.4807
0.0604325
0.0374089
65.2364
0.133861
-0.0727805
71.2537
0.237263
-0.106471
72.9829
0.233881
-0.00401785
68.0556
-0.0587093
0.280125
60.1063
-0.423555
0.340952
59.327
-0.538919
0.104573
66.9184
-0.531507
0.0120531
69.978
-0.546176
0.0670406
64.9919
-0.684378
0.20929
52.1322
-0.912917
0.250901
39.962
-1.12313
0.188902
37.1307
-1.27809
0.130867
37.2993
-1.37759
0.078363
36.8787
-1.41024
0.0150491
35.7624
-1.35693
-0.0681893
34.1066
-1.21692
-0.152053
31.8245
-1.02139
-0.206738
28.9051
-0.803046
-0.22818
25.5103
-0.584219
-0.229027
21.7805
-0.392071
-0.200736
17.8682
-0.225903
-0.174571
13.9113
-0.133463
-0.0989884
10.0029
-0.0352091
-0.102938
6.59313
-0.0379818
3.10402
-0.0873338
0.0843665
6.45601
-0.0931338
-0.0914401
10.1538
-0.0270849
-0.149215
14.0992
0.0557083
-0.234792
18.4948
0.213235
-0.345574
23.1173
0.407069
-0.399766
27.3787
0.636593
-0.436797
31.4292
0.868293
-0.407192
34.9253
1.06092
-0.302655
37.6109
1.13106
-0.0863741
39.2375
1.04242
0.140177
39.9389
0.820459
0.318361
39.6621
0.480058
0.529789
38.7794
0.163775
0.696948
49.2184
-0.0376916
0.464474
71.7457
-0.154403
0.158442
81.2599
-0.188166
-0.0358811
84.8572
-0.192716
-0.0945298
86.1918
-0.12418
-0.0601489
82.1867
-0.0399875
0.20507
65.4671
0.0502521
0.253045
61.5781
0.0972538
0.0704778
76.9463
0.0153468
0.104306
84.0457
-0.131348
0.234693
84.489
-0.365736
0.518515
72.7449
-0.727673
0.666538
49.8626
-1.1166
0.552641
43.2154
-1.37188
0.358171
44.4643
-1.49296
0.177167
44.7677
-1.47395
-0.0212664
43.9854
-1.32208
-0.233998
42.3494
-1.08637
-0.400893
39.966
-0.822908
-0.483835
36.8584
-0.561703
-0.503235
33.0983
-0.333684
-0.471535
28.8024
-0.144721
-0.403028
24.2365
-0.0324669
-0.299732
19.4729
0.0534797
-0.19569
14.7022
0.0792236
-0.137552
10.5268
0.0357164
6.61451
-0.0704173
0.149201
9.62723
-0.143886
-0.0270048
14.0734
-0.148638
-0.155994
18.7671
-0.104463
-0.292999
23.5757
-0.0313359
-0.433981
28.4839
0.0966863
-0.544624
33.2688
0.277686
-0.635144
37.7326
0.492355
-0.639537
41.393
0.731789
-0.560544
43.8801
0.891767
-0.266822
44.771
0.880758
0.127871
44.7403
0.712558
0.459223
43.7094
0.402898
0.824915
42.582
0.0804726
1.08322
56.7975
-0.140917
0.706453
79.7016
-0.28383
0.301038
85.2558
-0.367919
0.0466466
88.4272
-0.364847
-0.0919651
92.0984
-0.286326
-0.119029
96.4895
0.0145551
-0.0613894
94.6993
0.358713
-0.0530205
87.7089
0.430573
0.0206828
94.8307
0.327187
0.222741
97.074
0.106963
0.465566
95.1151
-0.141745
0.813808
86.6756
-0.476791
1.08286
60.5318
-0.859812
0.919301
46.9248
-1.09339
0.564235
48.1888
-1.17446
0.236949
49.0632
-1.10486
-0.106052
48.7035
-0.909147
-0.443461
47.4959
-0.666688
-0.657588
45.9077
-0.436523
-0.729594
43.2241
-0.23028
-0.725677
39.5222
-0.0741345
-0.644384
34.9211
0.0250586
-0.518351
29.9001
0.0937279
-0.383452
24.674
0.11444
-0.229511
19.5778
0.061292
-0.0952526
14.6484
0.0898642
9.79781
-0.136606
0.277901
13.2691
-0.232254
0.0566688
18.461
-0.287274
-0.114957
23.5617
-0.294997
-0.302225
28.7646
-0.24253
-0.504153
33.9545
-0.161588
-0.644145
38.9161
-0.03039
-0.784797
43.5887
0.13317
-0.820852
47.3692
0.343402
-0.788164
49.5732
0.56473
-0.508778
49.1282
0.621344
0.0497756
47.7317
0.485861
0.570882
46.1933
0.248759
1.05809
45.7589
-0.0137706
1.40253
63.7672
-0.262441
0.944073
79.5033
-0.404215
0.429131
77.2734
-0.42608
0.0672673
75.5859
-0.381225
-0.124015
76.2995
-0.263988
-0.207918
77.9154
0.0237048
-0.316404
75.6372
0.320994
-0.324992
68.0619
0.412059
-0.0551258
72.8597
0.377876
0.253347
80.8458
0.235067
0.591757
86.8055
0.0673592
0.977953
88.6521
-0.158448
1.3873
73.1011
-0.483516
1.25254
50.6118
-0.703721
0.763636
50.0777
-0.776242
0.295345
51.0204
-0.688021
-0.201765
50.7821
-0.481989
-0.659879
50.9424
-0.275344
-0.877
50.9193
-0.0939485
-0.926653
48.9484
0.0612286
-0.898616
45.4484
0.16343
-0.766042
40.677
0.237187
-0.61103
35.4875
0.261925
-0.427317
30.0639
0.212957
-0.196999
24.5894
0.135672
-0.0323321
19.1354
0.214765
13.6753
-0.163778
0.433463
16.9994
-0.331678
0.212032
23.0055
-0.416291
-0.0453903
28.3847
-0.482405
-0.25353
33.8733
-0.491898
-0.513517
39.3084
-0.452226
-0.703124
44.5239
-0.377175
-0.879086
49.3232
-0.260168
-0.956186
53.1185
-0.11981
-0.945485
55.2021
0.118982
-0.764664
54.3044
0.329269
-0.176928
47.8781
0.297085
0.586497
47.1978
0.166643
1.19703
48.9375
0.0337252
1.56621
68.2895
-0.189891
1.14887
77.6793
-0.424945
0.646079
69.7878
-0.516373
0.164773
66.3411
-0.429021
-0.200925
64.7182
-0.263026
-0.35986
65.1372
-0.0652728
-0.503229
64.3381
0.114891
-0.495339
61.5289
0.273866
-0.206215
61.6457
0.354416
0.157062
67.4116
0.297079
0.619551
76.5305
0.197408
1.04938
84.6474
0.0921364
1.53147
81.5669
-0.102727
1.47348
56.9954
-0.268212
0.917372
50.9939
-0.263071
0.283051
50.5378
-0.1181
-0.354649
49.5225
0.0514559
-0.837085
54.0283
0.189992
-1.02813
55.7534
0.310133
-1.0632
54.4574
0.392339
-1.00023
51.1339
0.440806
-0.835474
46.4237
0.452597
-0.643889
41.0282
0.396407
-0.391543
35.3268
0.326357
-0.144735
29.5385
0.181931
0.0962806
23.9233
0.385162
17.6679
-0.176741
0.599981
20.56
-0.377426
0.398618
27.1409
-0.519357
0.080086
33.0124
-0.614458
-0.176526
38.6869
-0.670085
-0.47682
44.3476
-0.67843
-0.713657
49.8882
-0.650985
-0.924784
55.0589
-0.58619
-1.03756
59.1735
-0.497551
-1.04856
61.2946
-0.353169
-0.920029
60.2278
-0.0691795
-0.480227
54.2906
0.0865204
0.424912
48.0815
0.103741
1.19781
52.7117
0.172921
1.50182
70.7865
0.133601
1.16042
76.4946
0.0400613
0.724464
70.3593
-0.131681
0.33436
64.11
-0.29137
-0.0386767
63.0993
-0.283353
-0.359821
65.4247
-0.233195
-0.544791
66.0464
-0.208045
-0.514627
63.2243
-0.128659
-0.284304
62.4187
-0.0066457
0.0337805
65.608
0.066717
0.524676
73.8762
0.11462
0.972152
82.5905
0.184088
1.46384
85.0233
0.19057
1.49934
64.6628
0.152641
0.94897
54.0806
0.250734
0.183372
50.9719
0.405697
-0.513518
53.4924
0.499066
-0.935161
58.6073
0.573876
-1.11323
61.0781
0.626979
-1.13206
60.3237
0.651536
-1.04469
57.0388
0.645759
-0.852113
52.0833
0.60207
-0.623067
46.3297
0.518668
-0.330738
40.3111
0.398079
-0.0446114
34.2463
0.20914
0.266728
28.2002
0.579681
21.4216
-0.169456
0.759043
23.8963
-0.403767
0.618662
31.0565
-0.597879
0.257654
37.3161
-0.740897
-0.0510115
43.1262
-0.832521
-0.403448
48.8539
-0.875714
-0.688124
54.7398
-0.882111
-0.935353
60.5434
-0.859721
-1.07533
65.5007
-0.796175
-1.12397
68.6181
-0.709409
-1.0132
68.5295
-0.446709
-0.738084
63.837
-0.0836504
0.0554013
49.6777
0.11111
1.0192
56.5454
0.293042
1.29681
70.6075
0.413869
1.00041
73.976
0.443795
0.666485
70.3132
0.405327
0.358962
66.1811
0.103715
0.256663
63.4777
-0.245176
-0.00702765
67.0661
-0.381974
-0.400909
69.3555
-0.497694
-0.399293
66.1824
-0.559709
-0.231632
65.5533
-0.462706
-0.0774404
68.7802
-0.268736
0.308502
73.8372
-0.0687945
0.736941
80.2588
0.17027
1.19111
84.4371
0.363235
1.32738
70.6789
0.495583
0.806498
58.7275
0.672705
-0.00246129
53.8264
0.816114
-0.654477
60.4441
0.884215
-1.00482
66.1529
0.917623
-1.15597
68.4006
0.918568
-1.14912
67.1461
0.893986
-1.04126
63.2218
0.841604
-0.823218
57.6112
0.76263
-0.568329
51.2979
0.635695
-0.227373
44.996
0.462621
0.107004
38.8409
0.226848
0.482893
32.3744
0.791703
25.0305
-0.127812
0.874682
26.7616
-0.355579
0.831826
34.3497
-0.583644
0.469287
40.7115
-0.756521
0.105769
46.5634
-0.88748
-0.288871
52.2166
-0.971966
-0.618285
58.3972
-1.01223
-0.908727
65.0727
-1.02085
-1.07978
71.3045
-1.00005
-1.15626
76.0833
-0.932361
-1.08874
78.1334
-0.771795
-0.899881
76.4781
-0.31038
-0.402876
70.1232
0.207282
0.507782
59.4462
0.482131
0.99018
68.4624
0.648522
0.795186
70.5786
0.692001
0.594445
69.0366
0.612084
0.422412
66.8133
0.432888
0.430243
65.2534
0.0562248
0.381745
67.5721
-0.269952
-0.0614482
74.1875
-0.443793
-0.217742
70.9744
-0.639587
-0.0426121
66.9441
-0.723927
-0.010343
68.6725
-0.602091
0.15788
72.1373
-0.346669
0.44051
76.5126
-0.000101116
0.790979
79.9794
0.35403
0.973332
73.3537
0.687954
0.454835
62.0276
0.97207
-0.284153
65.3158
1.11034
-0.785506
72.49
1.14783
-1.04309
76.7421
1.13228
-1.15076
77.3105
1.08523
-1.11985
74.551
1.01634
-0.995208
69.2674
0.92808
-0.759944
62.5004
0.811396
-0.477477
55.3623
0.659237
-0.100058
48.7577
0.469326
0.2733
42.3382
0.224344
0.706865
35.8428
0.999244
28.278
-0.0502113
0.91108
28.9319
-0.219077
0.984785
36.7264
-0.466224
0.699013
42.7606
-0.696765
0.320781
48.2071
-0.854661
-0.145096
53.6974
-0.95531
-0.528942
59.8586
-1.03078
-0.841886
67.6357
-1.07209
-1.04786
75.463
-1.08359
-1.15489
82.4128
-1.04951
-1.13107
86.9467
-0.96394
-0.988139
88.0186
-0.664351
-0.694048
84.714
0.0174129
-0.148939
74.3522
0.558068
0.432023
68.2913
0.726387
0.605581
69.2243
0.757333
0.547923
68.8314
0.622159
0.547923
67.8098
0.437649
0.614206
67.1278
0.307695
0.528052
70.3735
0.0650673
0.201365
77.3769
-0.13883
-0.00345859
79.4186
-0.306769
0.134438
73.2775
-0.522437
0.203101
70.7917
-0.571438
0.197047
71.6089
-0.438758
0.283415
73.1538
-0.109476
0.424607
74.9239
0.413663
0.433907
73.0735
0.930901
-0.0479669
71.2641
1.21521
-0.548776
80.9473
1.30419
-0.865987
86.5699
1.29608
-1.03876
88.1813
1.23746
-1.1062
86.2875
1.15549
-1.05876
81.4349
1.05577
-0.920745
74.2989
0.938774
-0.669431
65.9848
0.811851
-0.377581
57.8398
0.645788
0.0398107
51.1451
0.438092
0.455878
44.7603
0.201835
0.921334
38.5708
1.18391
31.0907
0.0419684
0.853201
30.4747
0.0161926
0.992727
37.9713
-0.112282
0.807732
43.235
-0.321759
0.51099
46.8752
-0.596322
0.114691
51.8267
-0.794864
-0.335717
57.9201
-0.905434
-0.730458
67.0852
-0.990056
-0.965392
76.7771
-1.04761
-1.10278
86.4155
-1.05672
-1.12841
93.8423
-1.02067
-1.029
98.2061
-0.900755
-0.813611
98.4826
-0.539513
-0.502052
94.3808
0.0302282
-0.113987
84.0383
0.380038
0.26971
74.0857
0.455645
0.474577
72.0996
0.399005
0.608125
70.4945
0.320975
0.704896
70.3466
0.338493
0.541752
75.8205
0.310024
0.260072
84.4363
0.187295
0.137043
90.2043
0.109522
0.222038
86.0412
0.0357896
0.287964
80.1773
-0.00663375
0.251228
79.8182
0.0766582
0.211856
80.2994
0.387168
0.128265
81.232
0.900447
-0.0461132
85.5119
1.2597
-0.382793
94.4663
1.38049
-0.657994
99.0101
1.37886
-0.864936
100.333
1.30979
-0.980735
98.5608
1.20852
-1.02437
93.9531
1.093
-0.967798
86.7712
0.958974
-0.814436
77.4059
0.821263
-0.559197
67.021
0.67112
-0.25551
57.5685
0.505993
0.1759
50.2729
0.341333
0.592986
44.9873
0.155705
1.08455
40.2493
1.32099
33.3531
0.0978963
0.737168
31.4423
0.221214
0.847968
38.3837
0.267159
0.738804
42.8657
0.247177
0.51061
45.4829
0.0602511
0.288126
46.0226
-0.247873
-0.0477852
49.0296
-0.545976
-0.419374
62.0809
-0.76421
-0.738939
74.0006
-0.885072
-0.980819
86.9845
-0.940322
-1.0761
97.5582
-0.951141
-1.02314
105.662
-0.91734
-0.850175
109.854
-0.812362
-0.602095
109.371
-0.570705
-0.338899
104.033
-0.223177
-0.0444352
92.0525
0.0193089
0.264329
82.7924
0.119346
0.535483
77.1041
0.236409
0.626696
78.4786
0.370651
0.456667
87.5323
0.407904
0.259804
95.9421
0.390929
0.174222
99.794
0.402549
0.227915
98.7865
0.48722
0.225216
96.1815
0.611078
0.155389
96.7303
0.797732
0.0564434
98.8139
1.05513
-0.0939068
104.631
1.28302
-0.250792
110.187
1.38448
-0.47219
113.105
1.3818
-0.654785
113.405
1.31455
-0.806795
111.246
1.20397
-0.887468
106.618
1.07185
-0.915775
99.5708
0.928321
-0.851398
90.0142
0.74209
-0.656057
77.9457
0.525576
-0.369295
64.5194
0.378491
-0.141225
52.7771
0.311775
0.212814
45.9543
0.228789
0.650065
43.6716
0.10686
1.18451
41.1708
1.40842
35.1034
0.148381
0.570452
31.7114
0.397816
0.574489
37.6604
0.595721
0.51575
41.4461
0.744424
0.341342
43.8675
0.808533
0.210851
45.449
0.686814
0.0708519
47.0888
0.310732
-0.0455358
49.2636
-0.203981
-0.207124
65.1734
-0.574875
-0.594817
83.4618
-0.722243
-0.923543
97.3192
-0.768201
-0.975864
109.294
-0.774515
-0.847504
118.003
-0.742983
-0.63447
122.301
-0.666952
-0.406516
122.719
-0.521384
-0.164138
118.424
-0.295313
0.0864316
106.984
-0.0525279
0.351687
97.4704
0.187261
0.452623
98.3511
0.355519
0.343579
107.859
0.412532
0.233765
111.878
0.442935
0.16434
113.653
0.529485
0.163153
114.164
0.664754
0.118081
115.736
0.825589
0.0237805
118.64
0.995759
-0.0882928
123.374
1.13613
-0.218586
126.785
1.23716
-0.344914
127.798
1.27067
-0.506798
126.871
1.23613
-0.628856
123.975
1.14552
-0.731713
119.154
1.00804
-0.771251
112.314
0.850682
-0.784717
103.182
0.632966
-0.66173
91.1228
0.29464
-0.341795
74.9711
0.0594196
-0.177095
55.4974
0.0473893
-0.142364
46.8857
0.104194
0.142653
42.9859
0.107998
0.623747
42.5613
0.0557678
1.21558
41.767
1.4433
36.3628
0.276908
0.299783
34.0758
0.628688
0.229232
39.1303
0.970702
0.186331
43.4493
1.24564
0.0889215
47.7345
1.39784
0.0871683
52.1003
1.38344
0.110467
56.4853
1.18506
0.162562
59.8527
0.671545
0.301825
61.611
-0.00195153
0.114704
72.1984
-0.401789
-0.511571
92.7895
-0.520465
-0.846452
108.279
-0.561322
-0.805716
121.732
-0.569736
-0.629456
129.777
-0.549422
-0.42705
134.15
-0.483241
-0.222394
135.191
-0.351314
-0.0219428
131.9
-0.122578
0.167083
125.717
0.120298
0.262017
125.08
0.28272
0.215869
128.991
0.375742
0.159491
127.619
0.466927
0.0890057
128.347
0.594054
0.0563173
130.674
0.747672
-0.0137662
134.241
0.896665
-0.107568
138.441
1.01877
-0.199476
140.704
1.11496
-0.309578
140.963
1.17578
-0.406784
139.356
1.17574
-0.512934
136.14
1.11078
-0.575775
131.267
0.983517
-0.621506
124.729
0.801555
-0.611459
116.312
0.583393
-0.59242
105.442
0.171561
-0.276228
90.2123
-0.238764
0.0418909
63.1696
-0.345974
-0.0747171
56.3524
-0.302435
-0.188493
52.1668
-0.173328
0.0149455
44.7676
-0.0542696
0.48779
41.9706
0.00118091
1.13767
42.0257
1.42284
37.1366
0.317152
0.0208456
49.6579
0.640512
-0.0482123
60.5304
0.976148
-0.11012
68.7032
1.26796
-0.188426
73.3021
1.44393
-0.0961796
74.5012
1.39415
0.136486
74.0216
1.20758
0.310135
71.7092
0.942826
0.528719
68.4744
0.465416
0.575362
68.5332
-0.038467
0.0220097
82.0418
-0.263712
-0.595477
102.464
-0.328775
-0.726618
121.653
-0.352103
-0.603255
133.815
-0.350645
-0.428749
141.271
-0.318639
-0.252357
145.796
-0.240911
-0.0930788
147.776
-0.100185
0.0448326
146.491
0.0655793
0.120637
145.981
0.198024
0.101705
145.999
0.299676
0.0688452
142.266
0.399176
0.000486466
143.005
0.521446
-0.0540794
146.364
0.655683
-0.137359
150.6
0.787931
-0.232627
152.579
0.912493
-0.32066
152.479
1.00905
-0.406509
150.641
1.06564
-0.467418
147.265
1.05455
-0.509934
142.452
0.972211
-0.505842
136.26
0.807444
-0.474279
128.583
0.594854
-0.420223
119.132
0.288651
-0.3114
106.84
-0.154106
0.145793
84.0553
-0.469085
0.344386
66.7953
-0.605483
0.0654127
66.5486
-0.637736
-0.140067
62.2917
-0.495679
-0.110093
53.0056
-0.252954
0.241937
42.9102
-0.047521
0.907592
41.4675
1.3524
37.4199
0.11571
-0.0932287
60.5755
0.297506
-0.224776
75.9934
0.494791
-0.307128
81.491
0.715989
-0.421744
78.042
0.94448
-0.338884
74.6169
0.99998
0.0571349
74.1452
0.882937
0.39068
72.1314
0.723389
0.652394
69.2571
0.582014
0.698565
68.686
0.301304
0.318214
73.8417
0.0186198
-0.270352
90.2388
-0.105713
-0.569053
116.858
-0.167108
-0.529362
134.432
-0.198104
-0.394498
145.235
-0.202526
-0.246791
151.987
-0.17254
-0.119957
156.18
-0.0900278
-0.0317991
157.932
0.0219157
0.0181095
158.46
0.1355
-0.00393828
157.498
0.250649
-0.0417237
153.416
0.369732
-0.114974
154.522
0.504657
-0.182201
158.239
0.643991
-0.270122
160.88
0.782057
-0.365477
161.344
0.903389
-0.439003
159.851
0.995098
-0.49705
156.71
1.0414
-0.515567
152.119
1.02004
-0.493889
146.284
0.911401
-0.407201
139.388
0.716548
-0.293822
131.326
0.432764
-0.154721
121.541
0.0639908
0.0378191
108.35
-0.246584
0.454663
81.8805
-0.480458
0.557424
71.1339
-0.672318
0.237416
75.9385
-0.755783
-0.0414119
77.824
-0.686864
-0.127533
70.9228
-0.424089
0.0353181
54.2021
-0.100163
0.578355
41.4632
1.22988
37.1521
-0.0148721
-0.0790163
66.6684
0.0746769
-0.314534
81.9151
0.192609
-0.4258
85.4776
0.293928
-0.52747
75.7797
0.491318
-0.544077
67.7181
0.59684
-0.0530053
68.2576
0.574131
0.391611
68.5742
0.560441
0.642808
67.7722
0.564714
0.683631
68.2441
0.51607
0.372389
71.6614
0.33453
-0.051097
82.0779
0.163633
-0.342428
105.368
0.0620759
-0.395099
130.393
-0.00665001
-0.313406
146.257
-0.0377713
-0.210368
156.006
-0.0354973
-0.118111
161.775
-0.0021454
-0.0606017
165.432
0.0507331
-0.0297177
166.717
0.110075
-0.0589973
166.173
0.180121
-0.109042
162.426
0.262255
-0.193322
162.896
0.368226
-0.282441
166.187
0.503423
-0.399211
167.734
0.65897
-0.515125
166.787
0.816378
-0.590583
163.835
0.942827
-0.618756
159.219
1.01478
-0.585216
153.443
0.994031
-0.475101
146.889
0.867503
-0.287661
139.933
0.650289
-0.0887023
132.235
0.35565
0.125393
122.924
0.0083207
0.37098
110.096
-0.219608
0.693322
84.1155
-0.371671
0.688977
72.7677
-0.522247
0.353072
78.1848
-0.596113
0.00619417
85.4804
-0.579949
-0.131287
89.1854
-0.434761
-0.0471424
80.8048
-0.141614
0.352739
52.9294
1.07309
36.6643
-0.0937975
0.0113674
71.1533
-0.0753723
-0.328816
84.9517
-0.0182461
-0.4821
88.1797
-0.0226745
-0.512322
73.9615
0.0387298
-0.591004
65.1316
0.233984
-0.247313
62.0224
0.318749
0.297594
64.7949
0.411535
0.537259
65.8314
0.566066
0.522127
67.2488
0.633036
0.310182
69.9976
0.559417
0.0538028
77.1162
0.382622
-0.104452
97.3725
0.208158
-0.172007
125.025
0.0777535
-0.161273
145.438
-0.00317321
-0.121211
157.453
-0.0456306
-0.0715369
165.015
-0.0511133
-0.0516417
169.267
-0.026819
-0.0501558
171.126
0.0193291
-0.101772
170.453
0.0917915
-0.177944
166.339
0.188409
-0.285456
167.011
0.323494
-0.409486
170.513
0.492891
-0.558093
170.964
0.675767
-0.683309
168.546
0.822521
-0.72011
163.899
0.905306
-0.685337
157.743
0.927277
-0.595063
150.915
0.882026
-0.423994
144.049
0.75034
-0.157589
137.651
0.498483
0.157957
131.212
0.167666
0.448969
123.058
-0.12414
0.667264
110.215
-0.234549
0.822252
86.6151
-0.291829
0.735166
73.9715
-0.36144
0.390883
77.558
-0.398941
0.0117265
86.3616
-0.374812
-0.162547
96.358
-0.283572
-0.103822
96.7049
-0.156205
0.297622
71.6465
0.945717
38.8805
-0.0931264
0.101083
71.4558
-0.0954363
-0.314248
85.7793
-0.116612
-0.447629
91.0131
-0.188387
-0.416376
73.2448
-0.307704
-0.458908
63.4712
-0.133669
-0.414201
63.6545
0.241179
-0.0808361
62.9327
0.478276
0.298108
64.7666
0.676438
0.327484
66.9122
0.769237
0.233664
70.3353
0.701401
0.164392
78.5456
0.541883
0.124941
97.2378
0.373377
0.0575688
123
0.237061
0.00753516
143.858
0.143413
-0.0122672
157.308
0.0837549
-0.00372912
165.839
0.0497929
-0.0119169
171.173
0.032462
-0.027876
173.639
0.0244059
-0.0880673
173.153
0.0256371
-0.172573
168.999
0.0472364
-0.298709
168.955
0.118705
-0.468735
171.972
0.262201
-0.682085
170.911
0.439819
-0.832628
165.974
0.57265
-0.823348
158.6
0.630564
-0.718657
150.604
0.630881
-0.575851
143.046
0.563755
-0.344161
136.481
0.372855
0.0364832
131.425
0.0693028
0.459586
126.064
-0.21696
0.738065
119.276
-0.365885
0.830265
106.375
-0.331701
0.808985
87.9282
-0.264562
0.666512
75.6309
-0.232171
0.335431
76.5124
-0.234257
-0.0112885
85.5722
-0.219836
-0.177486
99.1637
-0.19673
-0.0947191
98.9438
-0.176221
0.323734
77.3968
0.845833
46.7902
0.0516105
0.0457577
62.7716
-0.0417389
-0.197022
81.3307
-0.154311
-0.309128
93.2226
-0.302572
-0.235873
72.2469
-0.484686
-0.26442
63.4106
-0.511451
-0.378502
64.9222
-0.140589
-0.444177
67.4863
0.298292
-0.128812
69.3416
0.469621
0.172922
72.0935
0.512719
0.219864
77.9941
0.454763
0.266715
89.6529
0.35857
0.270233
108.274
0.242132
0.207902
128.076
0.122936
0.145925
144.545
0.0189988
0.100964
156.699
-0.0644881
0.083965
165.333
-0.131046
0.0579583
170.447
-0.17908
0.0252246
172.325
-0.208448
-0.0516845
170.644
-0.205978
-0.167995
166.739
-0.149964
-0.344519
167.431
-0.0147144
-0.584305
169.587
0.150062
-0.807875
166.198
0.208801
-0.836324
157.976
0.060875
-0.625536
148.417
-0.257541
-0.359047
139.997
-0.602122
-0.199252
132.656
-0.86834
-0.0569431
126.968
-1.01686
0.199584
122.434
-1.02964
0.480339
118.278
-0.927613
0.647456
111.806
-0.749057
0.66947
101.068
-0.521009
0.599224
87.9236
-0.328899
0.476725
78.8669
-0.275877
0.259733
80.954
-0.362448
0.0616802
95.7986
-0.433165
-0.0662862
100.037
-0.426197
-0.0664801
80.2195
-0.313475
0.220258
67.9245
0.599424
55.2944
0.294567
-0.260151
54.7312
0.203267
-0.0842994
65.53
-0.0845468
0.0147854
91.4012
-0.344052
0.0521604
69.6101
-0.504724
-0.0926788
62.4545
-0.544493
-0.329824
64.08
-0.420834
-0.561554
66.9553
-0.0907939
-0.445647
71.6361
0.176889
-0.0793033
78.9333
0.274532
0.145015
86.1672
0.322732
0.248018
96.3626
0.324706
0.296102
109.963
0.285039
0.270014
124.785
0.212993
0.234931
139.111
0.133584
0.192052
151.414
0.0636438
0.16098
160.692
0.00593806
0.120869
166.641
-0.0437763
0.0802984
169.246
-0.0995435
0.0119375
167.918
-0.185806
-0.0741762
162.808
-0.329144
-0.18883
163.446
-0.550315
-0.318625
164.393
-0.887559
-0.39175
155.698
-1.32278
-0.32194
142.106
-1.76168
-0.130026
130.646
-2.12696
0.043559
123.344
-2.38758
0.08592
118.754
-2.48571
0.0592829
115.522
-2.34398
0.0705831
112.721
-1.99881
0.145842
109.169
-1.56998
0.22957
103.871
-1.13853
0.249036
96.898
-0.747453
0.216253
90.0447
-0.472093
0.198884
86.9802
-0.426779
0.196934
92.6275
-0.550687
0.19871
103.091
-0.692741
0.1526
95.5777
-0.73889
0.0275266
71.2117
-0.568895
0.0451891
60.2229
0.0476873
57.3056
0.31731
-0.602365
60.0292
0.294092
-0.0629664
63.1752
0.0499351
0.295001
88.0317
-0.196886
0.306395
68.0611
-0.376647
0.0936527
60.4774
-0.420413
-0.285797
62.3535
-0.34551
-0.644776
65.007
-0.148732
-0.64422
67.7272
0.101435
-0.31686
76.0549
0.218794
0.0398882
87.3456
0.247769
0.235511
97.3148
0.233626
0.330651
110.432
0.1675
0.355314
125.386
0.078673
0.338238
140.21
-0.0264532
0.304585
152.449
-0.137007
0.274574
161.607
-0.263194
0.250454
166.766
-0.422215
0.247009
168.037
-0.667939
0.269189
165.4
-1.04817
0.323609
162.13
-1.57759
0.408709
158.655
-2.30009
0.524906
145.982
-3.1984
0.592686
130.889
-3.97625
0.499583
124.25
-4.3306
0.262488
121.833
-4.21966
-0.0318731
119.594
-3.8646
-0.237908
116.913
-3.48075
-0.298502
113.717
-3.09201
-0.294315
110.28
-2.63234
-0.293761
106.628
-2.08812
-0.29877
102.902
-1.53777
-0.290212
99.5414
-1.05277
-0.264697
97.6838
-0.701783
-0.159849
99.215
-0.517679
-0.00215992
105.327
-0.440457
0.125535
111.931
-0.434292
0.196209
110.03
-0.523389
0.193089
87.8457
-0.479449
0.0175069
59.6748
-0.429136
55.0072
0.148162
-0.744489
65.7294
0.182346
-0.0900366
76.1089
0.208253
0.300012
96.4203
0.167913
0.344847
79.7618
0.00796534
0.237583
65.4602
-0.12352
-0.15918
64.1584
-0.159678
-0.624725
67.0598
-0.00292346
-0.81668
67.349
0.226042
-0.54306
71.0886
0.347181
-0.0675232
80.0692
0.351253
0.254246
93.2069
0.29159
0.418657
109.264
0.208066
0.466127
126.797
0.123293
0.442934
142.788
0.0476713
0.393123
155.287
-0.0176451
0.348129
164.223
-0.0786367
0.318603
169.86
-0.140763
0.318414
172.112
-0.222246
0.363947
170.647
-0.345098
0.458526
166.638
-0.5124
0.59963
167.129
-0.717182
0.794667
165.47
-1.00264
0.974224
155.042
-1.37895
0.961463
142.301
-1.76192
0.708127
132.64
-2.09595
0.349543
125.567
-2.35467
0.0549204
119.776
-2.449
-0.179185
115.643
-2.31105
-0.409377
111.046
-1.98486
-0.599846
105.014
-1.56783
-0.695391
97.6499
-1.13101
-0.707952
89.2814
-0.730391
-0.65527
82.0115
-0.449923
-0.451412
79.6464
-0.308495
-0.174634
85.5557
-0.297641
0.0865821
101.288
-0.279974
0.192353
111.107
-0.28089
0.247648
100.134
-0.229138
-0.00896724
69.094
-0.625351
56.2692
0.0728356
-0.765087
64.9814
0.200619
-0.20052
83.5946
0.380869
0.138754
98.4433
0.469045
0.241861
87.6077
0.416578
0.256511
75.1144
0.275442
-0.0403236
70.6901
0.0884764
-0.463351
71.4011
0.0382514
-0.794493
70.1017
0.203061
-0.716379
71.1354
0.325446
-0.18148
78.3347
0.278764
0.326398
92.404
0.183002
0.547157
111.79
0.0854248
0.58987
131.119
0.00288399
0.541668
146.865
-0.066684
0.470618
158.492
-0.123277
0.410192
166.35
-0.169144
0.369178
170.971
-0.203024
0.358394
172.672
-0.221194
0.389888
171.177
-0.222374
0.466855
167.807
-0.179685
0.567514
168.893
-0.0576562
0.698044
170.851
0.100423
0.866496
166.94
0.180653
0.946502
158.624
0.0985684
0.8468
150.083
-0.154435
0.642497
143.581
-0.504215
0.429557
138.754
-0.821711
0.166673
132.791
-1.02586
-0.181643
124.177
-1.08085
-0.529646
116.068
-0.991669
-0.761671
105.848
-0.796539
-0.87575
92.0802
-0.577606
-0.859953
78.7721
-0.446937
-0.603736
73.7549
-0.404915
-0.261361
78.6851
-0.437133
0.0713691
92.8343
-0.423587
0.178332
106.454
-0.316987
0.184042
101.697
-0.192844
-0.0996935
74.3653
-0.752248
51.2881
0.14245
-0.820517
55.9625
0.377196
-0.371842
79.702
0.646596
-0.098611
94.0505
0.794642
0.0780136
91.3893
0.838631
0.173138
83.756
0.756255
0.00552674
79.9923
0.526727
-0.271583
77.6971
0.294721
-0.603758
74.3757
0.240285
-0.680548
72.407
0.265319
-0.197898
79.7298
0.185851
0.434653
94.9539
0.0812087
0.683435
115.758
0.00374553
0.688494
134.814
-0.0519388
0.60776
149.231
-0.0933393
0.517851
159.253
-0.116857
0.437706
165.98
-0.128506
0.384733
170.07
-0.126411
0.361155
171.702
-0.111676
0.381268
170.514
-0.0893017
0.449329
166.787
-0.0435565
0.527056
167.69
0.0623246
0.602991
171.33
0.235204
0.713801
170.26
0.432768
0.779353
165.633
0.568313
0.74159
159.234
0.623497
0.609819
152.778
0.616273
0.451022
146.803
0.51136
0.279328
141.026
0.256263
0.0750935
135.078
-0.100761
-0.170221
127.387
-0.403605
-0.438519
114.708
-0.518073
-0.728609
95.9289
-0.503579
-0.861306
77.3416
-0.527846
-0.611704
72.6217
-0.550549
-0.284798
77.0826
-0.535355
0.00513311
84.5949
-0.500298
0.123387
95.2501
-0.368876
0.0857461
95.7958
-0.181787
-0.224916
74.1303
-0.884833
42.1436
0.21753
-0.986737
43.1326
0.614903
-0.673518
60.3247
0.992533
-0.379854
75.6504
1.21803
-0.099534
85.7
1.301
0.0824392
87.6909
1.20205
0.0705588
86.6225
0.936523
-0.0530009
83.4124
0.580978
-0.299562
78.4785
0.328099
-0.461454
73.9703
0.192146
-0.0528037
80.4233
0.0347306
0.619972
98.3292
-0.0794908
0.818322
120.925
-0.137456
0.757533
137.933
-0.177115
0.651348
149.625
-0.196493
0.538045
157.817
-0.198237
0.439612
163.358
-0.17944
0.366378
166.67
-0.142613
0.325431
167.795
-0.0803786
0.320186
166.5
-0.00179008
0.371019
162.89
0.0971343
0.428791
163.831
0.240185
0.46412
168.269
0.421524
0.540202
168.607
0.615706
0.597221
166.255
0.763346
0.60857
162.159
0.820821
0.564195
156.968
0.795853
0.483189
151.232
0.708283
0.367829
144.907
0.55241
0.227415
137.974
0.272413
0.103762
129.929
-0.0996421
-0.0620273
119.429
-0.361971
-0.435146
97.8116
-0.531777
-0.682727
75.3087
-0.711653
-0.470945
72.9507
-0.845104
-0.196938
79.307
-0.882967
0.0131706
85.5311
-0.804079
0.0638111
87.5336
-0.554311
-0.0910668
78.8263
-0.181256
-0.525646
54.9063
-1.07109
37.068
0.199493
-1.19911
37.8632
0.605585
-1.07877
44.8591
1.03072
-0.76958
51.2584
1.39758
-0.392047
60.1321
1.6097
-0.0576731
71.0103
1.58622
0.13674
78.6571
1.32754
0.203937
81.7152
0.916501
0.0694634
79.5877
0.480113
-0.0657983
74.9845
0.092071
0.347252
81.0345
-0.141309
0.87675
104.806
-0.228325
0.916856
124.582
-0.272912
0.805388
138.424
-0.288091
0.665767
147.907
-0.283142
0.531126
154.546
-0.257063
0.412027
159.039
-0.21218
0.320918
161.617
-0.148504
0.262025
162.314
-0.0611103
0.232759
160.851
0.0337305
0.274447
156.87
0.13155
0.32888
157.913
0.250208
0.345612
162.471
0.392299
0.39878
163.686
0.555265
0.435302
162.436
0.706218
0.458716
159.546
0.815213
0.455176
155.33
0.856885
0.438901
150.088
0.811608
0.407423
143.905
0.665211
0.364463
136.716
0.460003
0.29729
128.185
0.147456
0.238449
117.569
-0.267385
0.00025214
98.5613
-0.583135
-0.362435
72.2455
-0.841353
-0.239999
70.0427
-1.04061
-0.00680906
73.5187
-1.04961
0.0582753
71.8136
-0.855603
-0.0691209
63.4376
-0.498932
-0.401761
50.5467
-0.127109
-0.904492
42.235
-1.21947
37.0739
0.144196
-1.37079
37.8652
0.436704
-1.40421
44.6446
0.739022
-1.10196
48.0806
1.0285
-0.697126
50.3566
1.24273
-0.266658
53.1242
1.29342
0.101419
58.8921
1.14642
0.363886
64.9915
0.828094
0.392782
68.6316
0.28667
0.470228
70.1208
-0.192184
0.845759
87.701
-0.364198
1.05982
110.203
-0.420299
0.97468
125.81
-0.438054
0.819081
136.673
-0.427081
0.649036
144.143
-0.394551
0.493283
149.284
-0.340949
0.354641
152.572
-0.264916
0.242815
154.202
-0.168926
0.165065
154.145
-0.0335908
0.0959916
152.246
0.102128
0.1356
147.943
0.214171
0.213708
149.368
0.338914
0.221045
154.136
0.473455
0.264434
156.131
0.61352
0.294213
155.694
0.740275
0.330205
153.704
0.830741
0.361257
150.386
0.872696
0.391704
145.923
0.855207
0.416393
140.31
0.768123
0.440523
133.57
0.595533
0.455385
125.444
0.354425
0.464285
115.496
-0.0854404
0.434384
100.823
-0.535648
0.100642
68.25
-0.74653
-0.0270746
62.3033
-0.836094
0.104263
59.5311
-0.780012
0.0227452
53.812
-0.578578
-0.260582
47.2453
-0.317083
-0.67883
43.9409
-0.0800679
-1.16671
42.4569
-1.32092
37.4266
0.0959062
-1.49177
37.9286
0.250118
-1.58622
45.6627
0.384279
-1.26288
49.6239
0.51514
-0.847548
51.3987
0.622314
-0.384817
51.7226
0.628326
0.0905244
53.1881
0.479891
0.50391
57.0831
0.145239
0.710291
60.2319
-0.303081
0.916861
75.5029
-0.558841
1.11122
96.2055
-0.621168
1.12293
112.707
-0.626861
0.974675
124.675
-0.604339
0.787774
132.86
-0.562831
0.599198
138.41
-0.500852
0.424793
141.991
-0.422233
0.272519
143.97
-0.325288
0.145261
144.396
-0.201122
0.0430057
143.153
-0.0298476
-0.0703097
138.793
0.126133
-0.0205676
134.549
0.239028
0.0988695
138.015
0.345966
0.115052
142.983
0.458131
0.152433
145.83