/*--------------------------------*- C++ -*----------------------------------*\
  =========                 |
  \\      /  F ield         | OpenFOAM: The Open Source CFD Toolbox
   \\    /   O peration     | Website:  https://openfoam.org
    \\  /    A nd           | Version:  11
     \\/     M anipulation  |
\*---------------------------------------------------------------------------*/
FoamFile
{
    format      ascii;
    class       volVectorField;
    location    "800";
    object      U;
}
// * * * * * * * * * * * * * * * * * * * * * * * * * * * * * * * * * * * * * //

dimensions      [0 1 -1 0 0 0 0];

internalField   nonuniform List<vector> 
128000
(
(5.24747 -0.705713 18670.5)
(-2.45425 124.714 23836.1)
(-23.2534 218.07 23975.3)
(-22.3312 294.734 25051.3)
(-61.3467 409.309 26069.3)
(-84.8332 480.067 26722.3)
(-126.441 548.881 27145)
(-161.327 574.215 27214.6)
(-196.092 566.692 26872)
(-210.32 514.285 26117.5)
(-201.259 438.505 25227.2)
(-181.528 355.667 24095.8)
(-159.453 248.044 23091.3)
(-133.434 89.4424 27193.7)
(-60.5342 -4.61466 36008.8)
(-19.6709 8.17251 40343)
(5.6194 47.5906 43034.3)
(-17.5052 95.9295 43316.2)
(-66.7007 76.0348 39927.8)
(-112.055 -11.1773 35059.7)
(4.72383 -158.352 34598.4)
(124.171 -153.546 39258.3)
(170.442 -122.758 41545.2)
(152.52 -125.942 39282.2)
(155.366 -153.191 32276.9)
(244.48 -192.302 25474.2)
(367.065 -226.193 24531.4)
(468.273 -256.286 25757.7)
(557.549 -276.628 26841)
(638.607 -285.087 27683.3)
(701.841 -275.086 28372)
(737.68 -245.7 28794.2)
(728.593 -201.084 28855)
(691.267 -159.56 28597)
(615.031 -111.244 28038.1)
(529.835 -81.1737 27217.3)
(417.908 -41.3277 26159.6)
(314.29 -29.4667 24807.2)
(225.687 -17.6725 24285.8)
(84.7554 5.00578 22617.3)
(-4.86093 -126.648 23782)
(63.1032 -0.064599 25206.8)
(33.9875 125.484 26518.3)
(48.6482 191.922 28130.2)
(38.3873 350.221 29656.7)
(8.5316 424.447 30515)
(-32.0698 513.829 31118)
(-90.9362 561.184 31258.6)
(-158.964 567.295 30863.7)
(-231.405 513.223 29873.8)
(-262.137 403.887 28501.8)
(-256.346 275.803 26767.8)
(-229.692 101.75 24956.3)
(-178.401 -79.7194 30465.3)
(-87.3811 -94.4779 42911.1)
(14.6131 -52.0918 47256.4)
(59.0609 -37.6583 48288.7)
(67.3887 -24.9683 48269)
(51.1805 -53.5333 45542.8)
(-80.0272 -108.084 36085.9)
(-105.214 -118.512 33938.5)
(-74.792 -1.34677 42639.3)
(-36.4314 -2.19667 47068.4)
(-28.9408 -37.6044 48088.6)
(-38.4297 -136.63 42344.3)
(9.45593 -217.896 29836.4)
(190.872 -294.621 26704.3)
(362.054 -333.735 28610.2)
(501.268 -342.394 30217.6)
(617.292 -320.791 31393.7)
(696.375 -262.649 32247.5)
(729.218 -187.093 32799.4)
(707.481 -114.73 32990.7)
(654.725 -54.4832 32772.1)
(558.199 -4.4598 32102.7)
(470.112 25.4438 31092.8)
(318.943 49.5091 29617.8)
(231.891 30.6913 27650.6)
(100.297 65.3451 26131)
(-8.45128 11.1367 24362.6)
(-22.896 -213.438 23877)
(31.8234 -121.239 26469.9)
(65.182 3.62769 28532.6)
(79.265 100.189 30194.5)
(95.8005 219.556 31642.2)
(100.283 310.964 32765.4)
(82.0606 406.416 33518.7)
(42.7414 462.994 33633.2)
(-26.4888 482.154 32996)
(-133.91 435.835 31469.5)
(-220.207 307.784 29655.4)
(-262.826 154.936 27534.8)
(-281.441 -45.5507 25684.3)
(-257.593 -238.309 33056.6)
(-133.741 -216.003 44926.7)
(-16.0796 -152.67 46836.6)
(79.7812 -94.1602 47612.4)
(116.501 -80.5926 48860.1)
(110.293 -55.9047 50695.3)
(43.6364 -77.442 49519.4)
(-92.3251 43.1413 45866.9)
(-120.998 106.317 49825.1)
(-154.724 58.6281 51504.5)
(-175.682 -31.5173 51219.9)
(-209.647 -176.993 47641.6)
(-212.287 -267.302 34156)
(-23.8104 -320.513 27269.8)
(190.688 -317.839 29059.6)
(354.712 -285.118 30912.7)
(495.91 -223.929 32288.4)
(584.408 -129.953 33389.8)
(615.083 -39.8119 34523.8)
(587.011 27.436 35122.9)
(532.217 68.3005 35109.9)
(433.329 95.1799 34393.6)
(339.427 92.741 33215.4)
(204.298 79.7751 31601)
(102.994 67.9399 29764.1)
(-33.7083 40.2926 27549.5)
(-149.702 -16.9517 24297.6)
(-22.8072 -289.006 24952.2)
(48.5657 -185.423 28078.8)
(81.1734 -89.7862 30176.6)
(130.581 6.93881 31918.3)
(153.371 127.307 33353.8)
(166.831 216.129 34417.5)
(173.154 305.456 35189.3)
(145.06 364.213 35312.3)
(103.296 384.139 34462.8)
(-18.7027 329.99 32123.1)
(-160.009 196.058 29582.1)
(-237.434 17.463 27323.8)
(-295.259 -202.964 26010.1)
(-312.525 -372.348 35057.5)
(-154.604 -290.398 42423.3)
(7.10844 -206.825 40268.1)
(70.5814 -148.263 38666.1)
(119.02 -88.5104 38500.8)
(110.318 -54.3328 38964.6)
(94.4507 3.11683 37655.4)
(-5.38584 109.231 33881.5)
(-112.654 86.8566 36430.4)
(-194.758 23.0552 40786.5)
(-259.317 -63.1989 44398.3)
(-313.244 -188.138 46203.9)
(-395.365 -294.865 39052.8)
(-260.066 -318.964 27803)
(-19.9762 -288.291 28455.2)
(162.878 -221.002 30185.4)
(339.304 -133.103 31481.2)
(445.778 -3.92595 33315.6)
(489.274 88.8087 35401.4)
(465.246 140.853 36491)
(420.526 169.921 36691.6)
(321.058 175.459 35974.9)
(234.356 155.443 34859.5)
(109.774 147.395 33359.1)
(-5.42267 94.4424 31491.3)
(-94.2743 59.5896 29102.7)
(-218.215 -4.55664 25712.6)
(-60.684 -396.103 25893.9)
(33.6378 -339.987 29513.6)
(95.5408 -205.212 31532.1)
(149.194 -109.108 33274.2)
(211.894 10.3852 34713.9)
(237.557 109.635 35829.7)
(264.295 195.371 36580)
(255.372 252.118 36660)
(229.158 279.514 35754.7)
(150.557 233.546 33257.5)
(-53.0087 104.503 27912.6)
(-213.886 -86.8238 26357.9)
(-299.286 -308.6 26343.5)
(-371.911 -442.539 35618.6)
(-237.065 -340.32 39416.2)
(-53.0589 -244.235 34638.9)
(110.502 -148.079 32369.9)
(153.061 -87.9717 31173.7)
(154.247 -10.7216 31109)
(151.965 72.0609 30594.9)
(105.415 121.831 29258.4)
(-8.49127 79.1405 29438.7)
(-147.394 32.0016 32458.6)
(-261.516 -63.798 37324.9)
(-363.765 -185.743 42011.8)
(-491.351 -308.982 41417.9)
(-446.382 -307.647 29726)
(-203.757 -235.635 27438.9)
(-4.63553 -130.598 28227.8)
(172.33 14.1819 28875.6)
(302.171 164.607 33093.1)
(346.236 232.939 36114.1)
(328.551 266.484 37585.4)
(283.848 275.781 37923.2)
(200.095 254.072 37358)
(106.747 226.436 36231.9)
(-20.7788 174.986 34700.5)
(-127.458 104.522 32812.4)
(-276.016 58.0186 30688.6)
(-361.172 -48.3358 26908.9)
(-81.6428 -457.395 26466.4)
(4.92638 -402.54 30250.3)
(99.5058 -286.318 32513.1)
(164.294 -190.223 34215.1)
(236.352 -81.9616 35688)
(285.961 16.7556 36936.6)
(324.603 99.9007 37863.1)
(336.705 153.205 38111.3)
(320.257 171.849 37246.6)
(276.112 150.589 34760.6)
(125.585 28.0798 29934.4)
(-141.851 -139.234 25478.9)
(-279.486 -369.252 26993.6)
(-382.488 -424.505 35179.2)
(-309.708 -291.747 37058.3)
(-188.279 -188.112 33393.9)
(-72.0186 -81.1003 29939.6)
(117.331 -2.6771 29113.5)
(173.867 31.0269 29946.9)
(195.674 80.2726 30110.6)
(187.056 81.1337 28822.6)
(118.967 18.3452 28567.7)
(-11.7449 -37.8332 30269.4)
(-180.761 -136.372 34492.6)
(-318.248 -221.742 39194.5)
(-485.152 -318.572 41205.7)
(-525.707 -291.589 32148.1)
(-355.007 -181.628 27681.3)
(-131.414 -23.9214 27012.2)
(29.2898 166.574 29501.4)
(153.358 281.634 33827.9)
(201.206 334.541 37117.1)
(199.502 353.235 38852.7)
(163.076 343.171 39224.1)
(89.4451 308.472 38560.2)
(-0.717337 259.04 37281.2)
(-113.977 192.355 35649.2)
(-212.516 122.439 33726)
(-342.763 39.6712 31428)
(-440.108 -69.2169 27571.9)
(-121.245 -516.177 26786.8)
(-38.0098 -486.048 30749.4)
(78.3729 -381.896 33149.1)
(166.213 -277.003 34816.3)
(260.196 -164.093 36232.5)
(321.143 -63.8141 37644)
(376.801 18.9992 38920.6)
(398.541 75.5331 39647.7)
(402.873 89.3898 39364.2)
(354.421 79.3051 37481.5)
(273.725 -17.9285 33472.9)
(-23.2111 -156.01 25091)
(-253.642 -336.319 27659.8)
(-350.627 -349.951 33569.8)
(-327.984 -203.02 34345.3)
(-250.184 -69.2257 32021.2)
(-178.753 18.9661 29684.2)
(-123.549 45.6806 28150.5)
(103.64 32.9032 29521.5)
(200 49.812 30415.4)
(220.445 14.2668 29020.6)
(208.797 -57.4097 28849.9)
(149.387 -115.976 30499.2)
(-13.4603 -173.541 33116.1)
(-189.546 -233.245 36549.5)
(-386.824 -293.913 39207.4)
(-503.069 -252.62 33623.5)
(-396.075 -107.005 28713.9)
(-208.545 94.0292 27184.6)
(-60.1054 284.808 31692)
(44.3392 380.956 36183.4)
(86.1892 427.19 39240.6)
(90.0067 427.987 40643.5)
(58.0965 406.203 40640.6)
(-8.92057 353.449 39615.9)
(-94.1609 292.596 38042.1)
(-211.994 208.735 36322.8)
(-328.219 111.892 34500.9)
(-456.712 6.40024 32051)
(-537.579 -115.6 28054.9)
(-151.056 -525.923 26713.9)
(-97.0229 -517.642 30743.8)
(37.1011 -423.932 33080.1)
(138.109 -322.133 34712.4)
(247.063 -210.85 36038.4)
(330.437 -108.524 37612.2)
(398.439 -30.3092 39389.4)
(432.03 23.7987 40822.7)
(448.801 42.383 41438.6)
(420.783 29.0644 40702.2)
(362.68 -10.2876 38296.5)
(178.762 -131.328 33911.3)
(-194.205 -241.489 27885.9)
(-330.794 -219.121 31266)
(-315.463 -80.4804 31521.4)
(-292.048 16.5994 30276.7)
(-225.091 77.5806 28883.1)
(-196.284 50.6722 27909)
(-135.593 5.53591 28701.2)
(108.933 19.4162 31399)
(153.788 -4.79814 30036.9)
(169.575 -83.9661 28426.9)
(207.842 -134.1 29367)
(128.07 -199.566 31180.6)
(-27.2146 -234.78 33551.8)
(-215.827 -262.761 35716.2)
(-384.778 -214.702 33515)
(-344.508 -42.7198 29085.4)
(-219.915 204.423 31585.4)
(-108.516 373.797 36303)
(-35.6675 448.869 39980.6)
(1.54009 476.751 42107.8)
(9.32875 462.935 42679.5)
(-16.6861 427.669 41924.3)
(-73.6016 363.63 40250.2)
(-156.296 291.456 38204.9)
(-268.683 188.654 36343.6)
(-382.65 88.8843 34397.8)
(-521.308 -38.885 32076.4)
(-596.964 -153.379 28224.7)
(-179.144 -504.019 26175)
(-166.062 -507.226 30138.1)
(-43.0097 -430.15 32154.4)
(87.9374 -332.785 33513.9)
(216.409 -233.318 34781.4)
(304.838 -127.956 36375.6)
(391.249 -43.893 38802.2)
(439.361 6.71471 41101.9)
(464.985 23.182 42839.8)
(453.819 13.4072 43347.4)
(408.647 -21.0498 42280.7)
(314.461 -84.4669 39381)
(60.5824 -150.181 33590.8)
(-268.263 -94.5165 30077.6)
(-291.542 -15.5119 29852)
(-289.013 58.7233 29173.2)
(-263.03 53.1544 28348.5)
(-232.202 -4.43818 27779.6)
(-187.323 -32.9908 28931.6)
(-95.876 23.0452 31703.9)
(57.0585 -2.28495 32536.7)
(14.6998 -52.7001 30122.6)
(83.9224 -123.83 29295.8)
(113.898 -151.197 29937.2)
(66.7782 -181.146 31002.3)
(-63.9282 -189.968 32304)
(-226.738 -138.111 32184.9)
(-254.682 107.267 32190.8)
(-193.031 330.514 37634.6)
(-130.385 444.522 41589.7)
(-78.2643 490.377 43965)
(-44.0814 500.087 44852.6)
(-33.3263 473.873 44349.5)
(-53.2405 430.942 42617.1)
(-103.375 357.001 40091.3)
(-182.33 274.356 37458.4)
(-300.496 166.823 35551.1)
(-422.268 46.6501 33654.2)
(-568.54 -92.4304 31648.5)
(-642.818 -199.843 28126.6)
(-180.644 -437.107 25349.1)
(-226.791 -429.446 28910.3)
(-152.674 -360.014 30389.7)
(-53.6295 -248.626 30650)
(114.446 -151.827 31740.7)
(254.777 -84.2644 33431.3)
(344.019 -24.1763 36695.1)
(407.202 21.454 39998.4)
(450.898 34.9776 43083.7)
(456.986 24.4533 44977.2)
(431.56 -5.04744 45441.8)
(369.408 -55.2969 44173.5)
(259.605 -99.4697 41196)
(45.3865 -79.7912 35832.3)
(-173.83 -44.1798 30958.5)
(-209.587 -27.8433 29629.6)
(-231.828 -33.4269 28591.7)
(-223.916 -89.9844 28256.7)
(-196.428 -60.4768 30264.9)
(-135.671 25.7824 33593.7)
(-83.8234 31.6516 35883.2)
(-70.1544 -15.4766 34335.8)
(-95.2951 -45.0575 32205.2)
(-62.099 -67.147 32377.3)
(-72.9675 -57.5885 33003.6)
(-106.161 -30.8473 33945)
(-192.53 108.086 36464.2)
(-227.688 306.104 41240)
(-194.815 415.199 44414.8)
(-149.224 473.961 46428.1)
(-99.2112 490.59 47237.1)
(-62.9502 483.303 46835.9)
(-44.7932 448.303 45194.9)
(-59.1535 395.887 42326.8)
(-97.9917 311.285 38674.4)
(-166.876 229.208 35252.2)
(-278.898 100.933 32867.7)
(-416.302 -15.3386 31617.6)
(-575.452 -151.254 30642.7)
(-653.11 -237.976 27742.6)
(-164.806 -359.11 24337.6)
(-239.165 -310.829 27391.9)
(-220.444 -215.912 28412.5)
(-179.156 -100.672 28188.3)
(-105.772 -30.0424 26832)
(55.8862 28.2649 27031.7)
(224.079 82.158 32556.3)
(331.99 67.5619 37060.4)
(393.65 61.7118 41785.7)
(422.59 51.2885 45142.9)
(410.338 20.3135 47283.9)
(372.19 -29.0199 47723.8)
(302.657 -80.9319 46295.7)
(212.212 -116.954 43059.1)
(74.5545 -108.253 37385.1)
(-75.9785 -109.408 33096.5)
(-151.074 -125.825 30435.8)
(-186.871 -131.315 30693)
(-183.369 -43.9584 34024)
(-152.806 30.2437 37171.1)
(-126.392 51.5794 38657)
(-145.315 24.7694 38384.9)
(-162.388 31.8073 37608.4)
(-180.548 68.4592 38182)
(-197.015 111.902 39499.4)
(-218.84 197.498 42492.9)
(-248.285 291.568 45608.8)
(-236.221 380.87 47878.9)
(-193.922 429.487 49267.5)
(-143.244 459.305 49781.2)
(-92.6877 457.62 49329.2)
(-50.3706 441.375 47821.4)
(-26.8216 399.186 45063.8)
(-34.2465 337.869 40856)
(-42.3089 238.77 35574.8)
(-85.2189 131.237 30762.3)
(-208.042 24.4067 28475.8)
(-367.256 -65.146 28945.3)
(-547.517 -198.589 29381.5)
(-642.607 -268.161 27171.9)
(-140.913 -268.997 23080)
(-221.515 -170.201 25417)
(-253.611 -52.0342 26109.5)
(-245.23 88.2303 25949.3)
(-232.649 183.559 25382.7)
(-189.415 237.859 24954.3)
(-85.1187 225.83 24883.7)
(106.973 181.389 31524.1)
(285.86 125.021 38801.6)
(359.321 97.495 43653.7)
(370.118 69.8728 47482)
(340.726 21.8132 49828.9)
(293.484 -33.9144 50373)
(233.25 -75.7175 49468.4)
(157.884 -117.347 46874.6)
(62.3423 -128.108 41716.6)
(-60.3036 -144.708 37555.3)
(-130.326 -108.297 37556.5)
(-152.731 -20.6099 40935)
(-140.989 34.7276 42324.1)
(-133.691 51.3509 42992)
(-147.576 57.3412 43315.2)
(-174.754 89.0678 44177.9)
(-190.678 136.015 45697.4)
(-208.289 198.818 48097)
(-219.639 258.52 50179.9)
(-221.506 311.234 51514.9)
(-199.894 366.746 52255.4)
(-162.699 395.631 52349)
(-119.343 410.234 51759)
(-70.8419 398.622 50368.9)
(-26.1042 371.992 47951.3)
(2.00893 324.305 44053.7)
(13.2833 221.198 37862.4)
(42.4901 67.9103 29392.6)
(22.988 25.4032 26186.6)
(-88.5445 -25.7411 25431.6)
(-295.904 -105.852 26813.8)
(-502.707 -238.102 28191.9)
(-614.177 -289.315 26465.5)
(-127.002 -135.574 23550.9)
(-190.032 25.9324 25198)
(-261.017 168.528 26224.1)
(-301.486 311.114 27148.5)
(-330.263 396.089 28057.1)
(-325.433 425.309 28929.8)
(-301.145 374.009 29274.8)
(-252.672 251.816 28896.7)
(-6.31571 157.526 32623)
(231.926 129.604 40503.3)
(295.65 112.291 45835.5)
(287.782 71.4347 50139.4)
(251.035 14.1061 52183.7)
(203.296 -37.9897 52832.3)
(151.987 -79.7163 52311.3)
(80.3461 -112.365 50300.7)
(3.08796 -118.408 47394.6)
(-82.7409 -77.1073 46748.1)
(-109.277 -16.1528 47924.6)
(-123.441 25.9852 47272.5)
(-120.636 55.9157 47541.1)
(-145.258 84.2269 48544.7)
(-162.139 127.08 50160.2)
(-179.298 184.391 52180.3)
(-188.55 232.077 53653.1)
(-188.258 282.574 54543.3)
(-183.23 322.846 54882.5)
(-164.859 359.355 54741.3)
(-136.295 369.72 54061.9)
(-96.6101 368.228 52787.8)
(-52.9068 337.121 50756.6)
(2.82302 298.425 47611.5)
(19.074 211.694 42304.7)
(72.2094 3.31034 30880.6)
(150.31 -51.1204 28847.5)
(170.369 -32.1093 28076.7)
(65.2907 -80.4855 25449.2)
(-172.002 -140.123 25313.4)
(-424.987 -264.269 27043.3)
(-571.752 -297.591 25646.9)
(-70.8113 26.4552 32853.1)
(-121.098 145.03 37455.7)
(-196.365 276.891 39965.1)
(-246.689 379.518 40272.9)
(-323.376 427.885 38838.1)
(-358.244 391.423 36773.3)
(-339.286 303.984 34086.5)
(-329.899 180.742 31268.9)
(-272.66 76.2305 30184.3)
(16.5035 92.6491 34983.4)
(205.409 137.914 42413.2)
(227.306 115.425 49040.7)
(204.017 67.7572 52701.6)
(167.816 21.6674 54527.6)
(125.068 -21.4792 55318.9)
(81.3582 -44.2484 55281.1)
(23.2143 -60.7226 54188.5)
(-31.3006 -36.7956 53547.8)
(-59.5199 0.186412 53252.2)
(-74.6827 35.1666 51743.2)
(-80.7854 67.0204 52011.7)
(-95.0366 100.705 53383.4)
(-109.805 143.304 55237)
(-123.392 188.081 56436.3)
(-136.27 231.5 57039.5)
(-146.061 274.402 57156.3)
(-148.154 305.639 56840.1)
(-142.654 330.034 56099.1)
(-122.418 325.173 54918.7)
(-97.1623 306.749 53206.2)
(-49.3738 253.839 50774.7)
(-11.1887 202.427 47059)
(-21.1052 19.9692 38396.8)
(47.477 -129.283 31762.2)
(170 -117.267 33073.1)
(257.41 -107.719 32484)
(222.164 -128.444 29123.5)
(-0.512806 -170.822 24943)
(-314.018 -264.207 25623.6)
(-521.065 -293.457 24721.8)
(5.35799 44.812 38597.6)
(-11.7452 112.646 45430.3)
(-46.9547 207.204 45924)
(-63.027 277.291 41643)
(-147.25 320.179 37864.3)
(-255.241 262.36 35921.6)
(-291.49 167.884 33489.8)
(-301.84 50.3741 30932.3)
(-277.603 3.10905 29621.1)
(-164.128 61.8436 30857.4)
(68.7335 126.358 36652.2)
(152.202 148.52 46257.8)
(153.12 98.6786 52019.2)
(122.597 53.5631 55106.7)
(98.2336 7.31296 56714.6)
(57.562 -22.0435 57480.1)
(30.9491 -37.4198 57490)
(-13.3044 -23.365 57210.6)
(-27.801 0.256899 56552.7)
(-53.0877 34.1389 54935.7)
(-57.5323 69.5297 55331.3)
(-76.0549 112.23 56818.3)
(-83.8644 158.444 58083.2)
(-93.8309 212.484 58731.5)
(-102.37 258.195 58831)
(-111.374 299.551 58476.4)
(-119.365 323.095 57716.3)
(-125.647 330.202 56598.5)
(-123.671 308.163 55158)
(-107.41 262.041 53312.4)
(-70.0183 196.806 50775.3)
(-29.1573 92.089 46732.2)
(-43.0605 -93.4211 36589)
(-30.5049 -177.764 33033.7)
(129.568 -166.73 36792.9)
(248.134 -146.07 39506.6)
(287.176 -143.955 37875.9)
(169.22 -161.269 30574.5)
(-152.727 -226.008 24779.9)
(-458.956 -277.753 23656)
(29.96 26.2097 41223.3)
(67.9079 90.2195 47635)
(46.0228 162.059 46958.2)
(60.0948 215.867 39494.3)
(14.9766 230.312 33616.2)
(-140.238 172.556 32400.9)
(-217.118 44.1135 31231.5)
(-274.381 -27.6994 29724.1)
(-277.242 -47.8548 28926)
(-203.925 54.7325 29450.6)
(-69.5117 137.027 32812.8)
(50.7317 162.679 41089.6)
(79.7954 136.376 49729.2)
(75.6612 91.5293 54715.1)
(58.2681 47.2893 57416.6)
(40.7936 24.7719 58740.9)
(22.2158 10.2757 59426.1)
(5.20471 16.4806 59408.4)
(-0.185128 32.4469 58898.2)
(-2.98036 58.5672 57416.2)
(-2.67634 88.7203 57582.5)
(-6.82837 123.324 58903.8)
(-15.1425 164.784 59771)
(-31.0211 212.715 59913.5)
(-55.3754 256.755 59489.5)
(-84.1228 295.835 58599)
(-109.621 315.502 57399.5)
(-134.473 315.269 56006.8)
(-147.255 271.397 54539.6)
(-147.579 205.279 52839.6)
(-133.812 106.856 50512)
(-110.72 -8.01452 46669.5)
(-110.909 -169.257 36910.5)
(-99.7522 -197.681 33143.3)
(43.3631 -178.308 37100.8)
(156.418 -134.718 42426.7)
(212.135 -126.608 46490.2)
(169.909 -125.921 44424.7)
(-16.826 -176.915 30816.1)
(-386.188 -253.314 22659.2)
(38.8308 -18.6102 42971.4)
(96.866 73.2303 48343.1)
(124.548 113.81 47480.4)
(112.518 159.213 37841.1)
(160.85 146.561 31783.8)
(-16.261 70.3675 28966)
(-149.419 -14.5353 29064.4)
(-203.013 -63.7575 28460.2)
(-242.466 -29.339 28115.1)
(-219.436 65.2678 28390.8)
(-139.497 143.969 30442.2)
(-58.7229 164.291 37518.6)
(5.86173 131.584 47135.2)
(21.4086 86.4919 53800.4)
(33.7612 41.6479 57316.2)
(21.3871 13.3855 59276.5)
(23.8878 -6.00494 60164.9)
(8.30861 -5.0696 60347.1)
(13.3035 4.31884 59794.6)
(5.80065 31.2876 58198.4)
(12.6065 64.9067 58433.9)
(7.95903 113.866 59816.8)
(10.3525 175.657 60291.5)
(1.35139 248.457 59911.7)
(-14.5137 305.1 58879.4)
(-36.5564 336.499 57423.7)
(-61.0012 333.831 55822)
(-100.796 299.479 54289.2)
(-139.164 230.003 53006.9)
(-157.997 142.891 51777.7)
(-136.485 24.5699 49909.3)
(-123.051 -106.879 46086.9)
(-130.212 -222.917 37461.7)
(-128.566 -209.865 33181.5)
(-3.39764 -166.135 36208.2)
(102.546 -83.583 42121.1)
(171.3 -64.961 49290)
(117.822 -60.0047 52088.3)
(-7.91054 -130.77 40808.6)
(-278.924 -248.096 23496)
(8.96262 -52.9372 42409.5)
(98.5174 67.3083 48040.6)
(142.17 104.043 48288.3)
(142.494 94.0633 36965.1)
(184.354 73.8967 30574.1)
(174.368 3.23562 29371.8)
(-76.5564 -27.765 27909.9)
(-189.241 -23.2115 27702.3)
(-221.724 43.2515 27692)
(-220.869 126.204 28253.6)
(-185.199 160.495 30720.6)
(-137.376 142.996 37133.1)
(-87.2605 110.988 45974.2)
(-45.74 83.2333 52772)
(-22.9373 54.2885 56796.7)
(-9.62942 37.1785 59096.6)
(0.686583 25.9236 60364.1)
(11.0344 28.7749 60758.2)
(29.3588 39.7815 60275)
(51.4741 62.3357 58677.1)
(76.6915 87.4185 58662.4)
(98.0971 125.827 59865.8)
(107.844 176.723 59808.1)
(89.0577 235.692 58537.7)
(47.1504 265.865 56523.7)
(5.38743 267.141 54378.9)
(-25.1126 247.495 52469)
(-59.5316 208.694 50992.7)
(-99.407 125.028 50156)
(-129.135 -14.8412 49282.3)
(-133.005 -166.167 47906.8)
(-118.193 -254.867 44029.8)
(-111.808 -281.254 37620.9)
(-115.659 -225.214 33544)
(-33.5799 -151.989 35292.4)
(45.7166 -55.7 41202.1)
(113.645 -29.6151 50030.7)
(85.5774 -14.9613 52505.1)
(-22.149 -128.114 43364.6)
(-221.667 -256.257 27813.7)
(-48.8862 -16.121 36829.3)
(64.671 93.8403 45074.8)
(128.714 71.2552 48982.4)
(128.045 39.2907 36132.6)
(189.191 -18.4053 30283.8)
(229.685 -33.0994 29717.5)
(197.326 -24.0269 29708.3)
(-73.2811 20.9775 29453.1)
(-143.209 38.5713 29639.1)
(-170.911 73.7006 31132)
(-160.663 53.9166 34846.4)
(-145.337 40.8632 41090.5)
(-96.9618 29.3272 47584.5)
(-61.5758 20.9326 52722.5)
(-21.314 1.28419 56266.3)
(-8.67595 -15.7595 58600.7)
(15.3142 -32.8074 59792.5)
(22.9868 -40.1628 59986.6)
(45.8873 -41.8906 59097.8)
(59.2261 -28.3914 57597.3)
(86.1553 0.796311 57837.1)
(106.305 64.9176 58735.4)
(132.359 159.339 57864.1)
(142.756 237.846 55433.4)
(155.759 231.322 52618.2)
(186.283 155.529 50278.3)
(236.426 37.8502 48389.2)
(241.645 -90.0899 47166.8)
(190.988 -243.323 46448.8)
(106.792 -359.407 45953.7)
(51.8958 -399.029 44617.7)
(10.5346 -373.342 41550.3)
(-18.2721 -315.961 37348.3)
(-44.5304 -225.817 34716.4)
(2.05328 -124.285 37042.4)
(89.0476 -55.8875 45739)
(170.713 -59.5642 50030.2)
(137.589 -93.8832 42155.6)
(30.1881 -193.484 37637.6)
(-154.983 -251.569 32481.3)
(-57.5275 79.7455 31924.1)
(-71.2585 121.62 36127.2)
(41.6751 68.5569 47796.1)
(87.7896 -27.8599 34653.8)
(154.534 -80.2308 29699.3)
(208.541 -57.1726 29214.4)
(245.603 -13.4161 29362.5)
(153.028 17.202 30319.4)
(-50.2275 3.53211 32339.7)
(-100.794 7.37937 34279.4)
(-130.645 7.57941 37331.2)
(-137.57 10.2424 41598.6)
(-122.62 13.5907 46224)
(-96.6539 14.071 50597.5)
(-68.357 3.56476 54221)
(-43.9838 -2.16082 56804.7)
(-21.4039 -9.54114 58304.3)
(1.63064 -5.29241 58762.3)
(35.0624 5.10001 58004.6)
(82.2916 28.7587 56095.9)
(153.058 50.5506 56316.9)
(247.742 73.4869 56798.6)
(339.908 49.9063 54082.3)
(393.89 -67.521 49743.8)
(403.832 -259.248 46198.9)
(405.47 -437.072 44177.1)
(447.672 -541.465 43195)
(499.997 -587.037 42790.1)
(497.312 -600.956 42635.3)
(417.666 -570.661 42284)
(301.411 -514.624 41316.9)
(197.788 -425.115 39698.1)
(117.637 -320.879 38108.6)
(52.7296 -218.523 38141.6)
(34.04 -151.86 42218.5)
(75.6823 -159.858 49024)
(145.622 -177.833 47600.9)
(221.206 -180.853 37247)
(174.642 -220.838 33187.3)
(9.80752 -226.008 33442.1)
(65.3771 186.533 35007.5)
(-95.9114 132.516 34816.6)
(-106.966 -18.1253 46034.7)
(-38.0697 -73.4413 33872.7)
(90.3165 -75.2733 28757.2)
(187.145 -25.7944 28423.4)
(245.503 45.3983 28502.1)
(186.753 52.3101 28659)
(61.4038 55.672 31159.9)
(-67.5142 30.7765 34744.3)
(-99.0654 1.82619 37695.5)
(-126.723 -5.52031 41773.8)
(-105.855 -20.0034 46445.8)
(-90.4319 -29.5886 50996.8)
(-53.9148 -46.119 54590.4)
(-30.6099 -60.6119 57127)
(6.91268 -79.0633 58348.1)
(35.7518 -100.653 58343.8)
(83.7633 -135.221 57136.4)
(146.169 -196.238 55865.7)
(245.452 -292.07 54685.5)
(366.546 -421.124 50464.8)
(544.852 -604.235 45470.4)
(751.257 -802.746 43483.1)
(896.558 -926.684 43075.5)
(938.398 -940.364 42832.1)
(889.659 -868.145 42527.2)
(819.874 -784.931 42124.6)
(749.632 -708.308 41716.5)
(660.498 -636.38 41303.3)
(545.387 -537.367 40933.2)
(418.939 -417.03 40781.1)
(303.865 -299.086 41340)
(191.205 -210.738 43505)
(107.338 -176.055 48009.5)
(63.5178 -171.015 53223.2)
(50.3526 -168.069 54780.4)
(85.5453 -153.592 45957.6)
(163.119 -162.879 32896.5)
(186.459 -20.0125 32092.6)
(173.578 205.069 38570.1)
(-47.2369 65.6943 42172.1)
(-134.413 -42.1632 50664.8)
(-167.989 -24.7264 39873.1)
(-70.7641 -31.1111 31249.4)
(74.732 40.9873 29361.7)
(209.942 108.043 29510.4)
(214.18 142.892 28595.5)
(58.0045 112.653 29220.3)
(-76.058 73.6414 31954.1)
(-140.379 26.5696 36219.1)
(-156.001 -4.05517 41458.6)
(-147.151 -36.484 47107.2)
(-123.842 -47.8628 52081.9)
(-97.1593 -62.6395 55760.3)
(-75.4012 -65.8926 58208.5)
(-58.0231 -80.239 59587.4)
(-49.613 -92.1564 59913.7)
(-49.1288 -123.948 59100.5)
(-54.4082 -165.723 57563.8)
(-58.4434 -237.212 57737.1)
(-67.1369 -320.68 57324.4)
(-45.6486 -400.144 54000.1)
(57.6847 -441.389 49945)
(232.964 -445.56 47030.9)
(417.585 -413.222 45099)
(565.418 -409.288 43692.2)
(633.373 -437.461 42961)
(631.919 -446.685 42131.3)
(589.475 -385.589 40804.7)
(520.578 -291.029 38972.3)
(427.385 -191.548 36705.7)
(323.326 -104.618 34834.3)
(206.661 -51.8582 35054.3)
(116.951 -56.7291 39145.5)
(54.8246 -77.8003 48353.8)
(44.7582 -130.87 55552.2)
(-3.66286 -132.594 52627.2)
(74.7991 -107.824 38294.6)
(169.436 108.42 33034)
(217.904 189.943 38598.2)
(-2.37409 65.4454 46819.5)
(-149.186 8.64182 52233.1)
(-218.769 48.9358 44193)
(-188.472 46.3628 36161)
(-78.9571 108.048 32605.6)
(101.696 166.033 31657.3)
(207.526 191.148 29974.3)
(149.784 168.954 29435.9)
(-49.6034 102.774 31464.3)
(-133.289 12.1635 36133.1)
(-164.524 -49.7136 42673.9)
(-142.808 -83.1022 48995.4)
(-119.312 -93.3302 53869.4)
(-81.4315 -96.4329 57221.8)
(-59.5407 -95.8453 59277.8)
(-33.5366 -98.1592 60292.8)
(-25.4965 -101.611 60420.4)
(-20.1757 -113.689 59587.9)
(-37.2935 -129.225 58263.4)
(-57.5737 -152.916 58641.4)
(-113.011 -170.861 59479.7)
(-191.722 -187.492 58428.3)
(-252.628 -180.898 55957.2)
(-232.419 -162.567 53496.3)
(-157.728 -155.571 51847.1)
(-37.998 -184.554 50895.6)
(114.684 -185.173 49619.4)
(280.179 -143.227 47396.7)
(383.121 -95.2609 45380)
(415.747 -61.0965 42520.4)
(389.164 -16.6594 38118.5)
(332.65 25.2193 33701)
(231.126 17.5153 32703.3)
(146.753 -57.179 36285.4)
(61.6312 -138.035 44689.7)
(67.7917 -194.012 53709.5)
(36.0115 -168.229 53971.6)
(85.9218 -63.7986 41659.6)
(204.037 172.963 30477.8)
(216.097 193.701 33848.7)
(6.02634 122.074 45388.1)
(-162.42 124.735 50657.8)
(-269.143 145.748 46743.7)
(-292.853 137.6 40846)
(-229.417 197.748 37342.8)
(-79.1652 224.723 34841.4)
(81.4064 246.521 32143.7)
(131.915 199.052 30267.7)
(-16.3563 113.458 32340.5)
(-147.473 -32.0047 37481.4)
(-173.48 -100.593 44588.4)
(-156.586 -134.165 50815)
(-128.57 -127.845 55199.4)
(-96.911 -128.013 57970.8)
(-77.3209 -115.888 59623)
(-63.0611 -116.905 60450.2)
(-62.36 -112.475 60550.6)
(-70.5359 -123.857 59816.9)
(-94.0601 -133.098 58355.4)
(-116.283 -152.699 58671.6)
(-151.883 -155.24 60104.3)
(-202.677 -153.199 60046.5)
(-254.958 -115.616 58881.4)
(-271.153 -54.8631 57208)
(-246.946 11.4682 55618.6)
(-209.074 61.7772 54301.9)
(-168.181 92.4484 53150.3)
(-88.2064 102.292 52017.1)
(57.7162 107.116 50270.7)
(208.53 94.1104 46532.6)
(304.603 88.9812 40124.4)
(312.647 94.3467 33449)
(252.362 39.1864 32566.9)
(198.932 -71.1296 35979.9)
(122.594 -150.457 41250.3)
(97.8479 -192.025 48717.1)
(82.8501 -176.192 51598.3)
(101.761 -47.5118 42216.6)
(207.658 211.273 25479.6)
(264.148 211.804 26699.4)
(17.2401 204.802 35133.1)
(-197.524 251.64 41611.2)
(-335.826 273.107 44691.6)
(-399.027 276.588 43533)
(-364.698 293.48 41106.7)
(-243.185 285.275 37981.3)
(-77.4857 272.533 34410.3)
(59.9145 217.129 31345)
(-27.1367 93.1886 33053.9)
(-142.474 -77.3575 39304.7)
(-167.429 -167.306 47140.9)
(-138.43 -174.428 52596.8)
(-106.382 -164.111 55972.3)
(-71.149 -148.358 58081.8)
(-50.2826 -129.876 59314.9)
(-32.348 -114.474 59869.9)
(-32.9987 -98.7953 59791.3)
(-38.6098 -90.8293 59013.3)
(-70.3115 -84.5256 57579.5)
(-95.921 -83.2182 57912.1)
(-136.319 -68.9755 59641.1)
(-190.387 -59.2224 60082.5)
(-253.129 -34.7225 59723.8)
(-295.539 -0.694629 58883.4)
(-308.487 37.9997 57772.2)
(-284.875 64.5642 56573.5)
(-238.736 95.6597 55251.8)
(-170.635 114.604 53777)
(-103.621 106.851 51920.2)
(22.5527 68.9575 49082.7)
(181.152 71.3056 41479.6)
(271.898 92.8711 33044.7)
(260.359 -13.684 33218.2)
(239.197 -152.198 37628.6)
(204.008 -251.432 42450.1)
(184.436 -293.483 45632.7)
(166.573 -235.23 43343.4)
(168.276 -30.3861 31968.6)
(219.541 320.383 22915)
(368.858 246.286 24115.1)
(146.294 288.778 26814.2)
(-98.0033 312.517 28904)
(-331.987 328.152 32128.1)
(-481.014 339.736 36075.6)
(-512.848 344.772 38139.3)
(-438.426 314.121 37957.4)
(-274.142 274.43 35546.4)
(-100.225 209.639 32328.9)
(-83.5811 46.5439 33861.9)
(-163.332 -178.081 42559.5)
(-166.095 -224.321 49306.6)
(-125.425 -222.739 53560.5)
(-92.0921 -199.596 56119)
(-60.4806 -179.651 57668.3)
(-41.95 -151.496 58531.1)
(-31.2359 -132.299 58829.1)
(-35.3237 -109.23 58599.3)
(-47.3403 -95.9614 57754)
(-80.4961 -81.6833 56170.6)
(-108.716 -78.6577 56544)
(-134.961 -55.685 58335.9)
(-169.227 -40.5963 59094.3)
(-207.407 -9.25112 59127.6)
(-240.266 27.3384 58717.9)
(-262.015 67.8789 57961.2)
(-268.293 98.7389 56945.5)
(-257.98 115.553 55677.5)
(-222.19 114.693 54100.6)
(-158.834 95.2777 52038.3)
(-90.7946 72.3286 49118.3)
(75.6496 63.8101 42525.9)
(219.239 18.9847 32285.5)
(229.775 -90.4253 32523.7)
(248.861 -245.566 35625)
(240.775 -332.538 36466.2)
(229.243 -320.151 33886)
(213.268 -161.74 28509)
(234.951 132.155 25240.9)
(247.414 407.871 23607.2)
(470.595 279.458 25013.5)
(330.232 348.18 27583.6)
(126.925 346.336 27934.1)
(-107.855 332.291 27650)
(-308.497 295.374 27696.8)
(-439.57 261.194 29271.6)
(-453.176 204.721 30914.5)
(-355.36 167.276 31359.6)
(-210.08 97.8322 30889)
(-148.827 -144.623 37392.1)
(-167.55 -276.222 45610.6)
(-135.533 -282.31 50712)
(-89.6618 -261.299 53824.8)
(-52.0896 -227.95 55634.5)
(-19.4986 -192.202 56640)
(-0.21274 -155.396 57072)
(11.5388 -119.766 57033.9)
(6.863 -85.7149 56533.6)
(-3.11686 -53.5792 55524.2)
(-48.8834 -26.0097 53803.1)
(-80.4168 -15.4959 54321.3)
(-111.312 6.15957 56213.9)
(-149.302 20.9377 57262.3)
(-189.616 42.0113 57585.9)
(-227.081 62.8563 57495.8)
(-256.93 85.2915 57058.5)
(-272.721 98.2241 56321.2)
(-276.442 107.439 55255.5)
(-263.245 97.532 53834.6)
(-234.716 77.8919 51908.4)
(-185.52 21.941 49226.9)
(-112.017 -17.0145 44415.8)
(122.158 -60.2178 31189.1)
(170.2 -159.242 29631.5)
(155.678 -277.694 29593.4)
(172.036 -290.124 28064.1)
(195.755 -182.486 25954.9)
(229.249 37.7935 25535.3)
(278.402 298.417 26235.2)
(270.525 472.484 24727.4)
(559.06 303.723 26192.3)
(477.791 370.442 29382.1)
(311.413 324.135 29926.1)
(102.254 273.396 29207)
(-69.9465 198.745 27831.5)
(-231.386 136.779 27225)
(-288.695 38.0844 27910.5)
(-261.904 -28.0922 28243.7)
(-182.766 -183.247 34098.7)
(-145.097 -325.128 41993.3)
(-132.209 -361.453 47706.3)
(-92.1428 -338.859 51349.3)
(-50.0889 -301.658 53421.7)
(-13.7233 -256.228 54507.5)
(12.3685 -214.325 54937.4)
(28.2425 -168.214 54893.8)
(34.8272 -128.57 54418.8)
(27.6959 -87.5746 53482.9)
(16.0422 -41.4864 51555.7)
(-37.9821 -5.58574 49833)
(-83.2904 -6.27006 51116)
(-106.085 22.199 53110.6)