/*--------------------------------*- C++ -*----------------------------------*\
  =========                 |
  \\      /  F ield         | OpenFOAM: The Open Source CFD Toolbox
   \\    /   O peration     | Website:  https://openfoam.org
    \\  /    A nd           | Version:  11
     \\/     M anipulation  |
\*---------------------------------------------------------------------------*/
FoamFile
{
    format      ascii;
    class       volScalarField;
    location    "300";
    object      p;
}
// * * * * * * * * * * * * * * * * * * * * * * * * * * * * * * * * * * * * * //

dimensions      [0 2 -2 0 0 0 0];

internalField   nonuniform List<scalar> 
128000
(
-297285
-297161
-409526
-385982
-530371
-542326
-625061
-615405
-581033
-494365
-439210
-374206
-401374
-483232
-490550
-514932
-520261
-551106
-567476
-566388
-552840
-579249
-549148
-495894
-456556
-406806
-335076
-265343
-315209
-406317
-504455
-626402
-649555
-655452
-521445
-494210
-293343
-300232
-160945
-133678
-297174
-208367
-309698
-293548
-411577
-489253
-597990
-694941
-709248
-618441
-538192
-423411
-420647
-499317
-519618
-554903
-554743
-574159
-586334
-587951
-564072
-600527
-559776
-524468
-481517
-404798
-353986
-284328
-442635
-558629
-714691
-803719
-738096
-607469
-423165
-324929
-144028
-159370
-20216.2
-106362
-408231
-307472
-334820
-316709
-387942
-440812
-551172
-630540
-757718
-702493
-644664
-561376
-540597
-582946
-592776
-586921
-584474
-583236
-567926
-572501
-556558
-589857
-594100
-583029
-557153
-513376
-486016
-451565
-619979
-703305
-842055
-829056
-664212
-531802
-369224
-291463
-174006
-188760
-135897
-257590
-385460
-293738
-313933
-283501
-343307
-414092
-505691
-641643
-732446
-806301
-720697
-665256
-671590
-702162
-686203
-708506
-641886
-629335
-608985
-608503
-601698
-637820
-642906
-661783
-670837
-622173
-626630
-607113
-774088
-826353
-961345
-822460
-660818
-475176
-313170
-214820
-105606
-142485
-104112
-209350
-525805
-411850
-385921
-341456
-341876
-384437
-471779
-543670
-740233
-731006
-796669
-700715
-729740
-760547
-795356
-698940
-685627
-634691
-615466
-610167
-636506
-684085
-739839
-772328
-782632
-817638
-791319
-762823
-839311
-924119
-892715
-777132
-546668
-404753
-267651
-205839
-171847
-239704
-241199
-396128
-532026
-485742
-437167
-411645
-386911
-399628
-458850
-521098
-623380
-730815
-693605
-679756
-707143
-730711
-750948
-753139
-688395
-615008
-629634
-630222
-652322
-690978
-704228
-796180
-839143
-796466
-760794
-736041
-807323
-781696
-865220
-641761
-503151
-369529
-273812
-237182
-236643
-287768
-307368
-408195
-608827
-586267
-543573
-493731
-464550
-451924
-476816
-515060
-591980
-659602
-692793
-674324
-619702
-697806
-696181
-664225
-629408
-586928
-595104
-598178
-578193
-622173
-681397
-719215
-741265
-732860
-707350
-657020
-701566
-752516
-702281
-558680
-456304
-361240
-319449
-316243
-353153
-404312
-447944
-543148
-594289
-678436
-619497
-633281
-538039
-511462
-515484
-517063
-573305
-603445
-697861
-622186
-714875
-638630
-713030
-676765
-659528
-600584
-619510
-617072
-571861
-601629
-624456
-672393
-665287
-668473
-574362
-666404
-642665
-718506
-612380
-523683
-448303
-397166
-395248
-410753
-466764
-500365
-555873
-577434
-551185
-672715
-735524
-706433
-723649
-609983
-583192
-562494
-565555
-585771
-612108
-657471
-625568
-720557
-679859
-677041
-632673
-608609
-588587
-596130
-548953
-572729
-620241
-634977
-671649
-641649
-667657
-585647
-639860
-601769
-549192
-492291
-464932
-454491
-489860
-523745
-590640
-594133
-657024
-615425
-475494
-586355
-660056
-767208
-696374
-692627
-653628
-592059
-588063
-556841
-592667
-571216
-633653
-611820
-679167
-640366
-638609
-588589
-592469
-582366
-557796
-562038
-592516
-624269
-616490
-636914
-559587
-592552
-555296
-557788
-513564
-498157
-495030
-515844
-563448
-589246
-621491
-648371
-668835
-592774
-412575
-509371
-620680
-689264
-754071
-669372
-660390
-673641
-600224
-580499
-548856
-559135
-540729
-578588
-562432
-576183
-553549
-541050
-527348
-537447
-523063
-538764
-553607
-560099
-579835
-553463
-570224
-536801
-551737
-529527
-524885
-519087
-538092
-564017
-596515
-602120
-660186
-664691
-673588
-567209
-371059
-387011
-528499
-630578
-673569
-646000
-662416
-604104
-649890
-562911
-565215
-524371
-545920
-525277
-556666
-533588
-549092
-532367
-542682
-542752
-539198
-543788
-542512
-550525
-535559
-544277
-519458
-530617
-522827
-523173
-522200
-524013
-538910
-561168
-576745
-607383
-644760
-650645
-608058
-506383
-428378
-458281
-555321
-675423
-719002
-691232
-600490
-700052
-615561
-614640
-536097
-528432
-496022
-504875
-491029
-496926
-488834
-490852
-488096
-493777
-488869
-494109
-497781
-498862
-515317
-512701
-538603
-538458
-565244
-558241
-568104
-557582
-554535
-572318
-590572
-614480
-630339
-595286
-554421
-450864
-478541
-490252
-572321
-672449
-754231
-715099
-692168
-637285
-715233
-602788
-584477
-520533
-524441
-498660
-515694
-499422
-514068
-506152
-514853
-512484
-510715
-509574
-503009
-504741
-502697
-513631
-524102
-542069
-564715
-558341
-575693
-528650
-575066
-533181
-606788
-607284
-598285
-525981
-458351
-382806
-497375
-528299
-588224
-674352
-765750
-724011
-678594
-691557
-670126
-653412
-556240
-529939
-488938
-484034
-470317
-468613
-462099
-459212
-455062
-452132
-448972
-448873
-455191
-463248
-490330
-515272
-571101
-609745
-660934
-656127
-652664
-607192
-597273
-587647
-636945
-612836
-590601
-496133
-418405
-365737
-502175
-541263
-573553
-677970
-673758
-741187
-654887
-667387
-677474
-626298
-585259
-525229
-520901
-495114
-506309
-492211
-501756
-491877
-496225
-488275
-485744
-478006
-473974
-474832
-486072
-511386
-556541
-609433
-663391
-667186
-671796
-603885
-599326
-565987
-620220
-579386
-563830
-466515
-431252
-384351
-515815
-543301
-578939
-611215
-676351
-639474
-620696
-633842
-620125
-607921
-545840
-516351
-487758
-473986
-462246
-451684
-444114
-431560
-423307
-410595
-404538
-397075
-401259
-412115
-455684
-520766
-645398
-768881
-877044
-865126
-832424
-715353
-654010
-601007
-618751
-566187
-557882
-476400
-450938
-415534
-539146
-556560
-573357
-611249
-623927
-614205
-587904
-588917
-611729
-573278
-556235
-521044
-520597
-498636
-504667
-488761
-493553
-480355
-480814
-466838
-460897
-445365
-436966
-431426
-447736
-492667
-592871
-741261
-863895
-932764
-947421
-754641
-654158
-560923
-554684
-510549
-514952
-454898
-515897
-456189
-554922
-558807
-563305
-582388
-618983
-610512
-591642
-602889
-568428
-558892
-522935
-508153
-489645
-470024
-458354
-438512
-427359
-405323
-389542
-365040
-346753
-319601
-301857
-291678
-327313
-445395
-751020
-1.11172e+06
-1.33923e+06
-1.27096e+06
-1.13609e+06
-914473
-704296
-575461
-538880
-494824
-506861
-474362
-548355
-464884
-544818
-555632
-558169
-591549
-608630
-619821
-594099
-579684
-593932
-558054
-553530
-530680
-526633
-504639
-503604
-486571
-486889
-471998
-469009
-452002
-442088
-417305
-392196
-361595
-344656
-379708
-568263
-867624
-1.07596e+06
-1.1674e+06
-1.13992e+06
-821136
-599525
-441841
-432298
-424839
-458431
-425037
-456988
-414351
-544174
-544104
-559450
-597646
-653634
-650179
-570712
-547884
-526555
-525279
-520302
-503250
-490103
-464230
-453420
-428450
-416045
-389155
-367647
-332656
-295357
-234638
-157436
-69506.9
-14331.6
-187646
-706764
-1.27395e+06
-1.51046e+06
-1.25741e+06
-1.00069e+06
-740374
-525970
-406914
-405546
-423998
-480757
-450454
-527138
-442932
-555799
-571978
-576847
-626600
-692507
-681794
-638394
-599211
-595331
-563533
-557995
-534813
-522874
-502532
-496863
-482371
-480442
-468178
-464524
-450290
-441792
-420966
-400604
-380581
-379979
-457494
-654140
-953709
-1.07389e+06
-1.15365e+06
-1.10077e+06
-833268
-655952
-481327
-468724
-447277
-495962
-453111
-495816
-454456
-531735
-542261
-584180
-635665
-741156
-704576
-682960
-621049
-621271
-578752
-557048
-509528
-493872
-457889
-449587
-424435
-417353
-396475
-385705
-365061
-351281
-330375
-320234
-319650
-365738
-489993
-788261
-1.16163e+06
-1.39523e+06
-1.18705e+06
-1.0199e+06
-939962
-769016
-649020
-596465
-556130
-566457
-496143
-515974
-488937
-464724
-490217
-555547
-644773
-753092
-803544
-719917
-671395
-646206
-622570
-572536
-539849
-510080
-492045
-481848
-473810
-471577
-466366
-465206
-460135
-458983
-453441
-453830
-459798
-484682
-540164
-632169
-768286
-854910
-900731
-942195
-799020
-743253
-646801
-664928
-612975
-608188
-512307
-469626
-437608
-423130
-439420
-529309
-648290
-783666
-813662
-736013
-646647
-662724
-591174
-568577
-494825
-483050
-443314
-441565
-421139
-421979
-410186
-410508
-403784
-406253
-407198
-420652
-442518
-491873
-565742
-687194
-815474
-918933
-896872
-851174
-802579
-740644
-720228
-732091
-709805
-679378
-569844
-507559
-466944
-355640
-353213
-471523
-594974
-803954
-775955
-722753
-650170
-623627
-616601
-538455
-513028
-477962
-468540
-458875
-459514
-459309
-462707
-463860
-468568
-470274
-475680
-482366
-492497
-515789
-543496
-595197
-642108
-700795
-702840
-732091
-675900
-690087
-656004
-719270
-712646
-684334
-572336
-455049
-402843
-274891
-286431
-439130
-597707
-764324
-744398
-690042
-553101
-642853
-524743
-528954
-454820
-454598
-422126
-429238
-417270
-425068
-421527
-427514
-430602
-440279
-449348
-466001
-485505
-517853
-555751
-611068
-662278
-714669
-727637
-727528
-710922
-697811
-703053
-731293
-744651
-725408
-632684
-555847
-475503
-231798
-284486
-453055
-616939
-756579
-729508
-651444
-647506
-563698
-558893
-488186
-468706
-442354
-443384
-439298
-449189
-450843
-461801
-462249
-477336
-475097
-489481
-496193
-505506
-523952
-533549
-566119
-579712
-621940
-619614
-662131
-628662
-682309
-643014
-691425
-706504
-710572
-645903
-592988
-496885
-308591
-444041
-610555
-784573
-845068
-833706
-698749
-642908
-620909
-511431
-483193
-431034
-434198
-415616
-429806
-426055
-435596
-437338
-443507
-452067
-460660
-473489
-489153
-503239
-524110
-543844
-568739
-590202
-620121
-638988
-653922
-684192
-672514
-731534
-729891
-750349
-770105
-739565
-690533
-586385
-394675
-563656
-714408
-857177
-934050
-798358
-742944
-693996
-560389
-507088
-453073
-444484
-428185
-445703
-444392
-461668
-463806
-478314
-474956
-494823
-483381
-504081
-512414
-521501
-540505
-538986
-561759
-560229
-582485
-583639
-614934
-616939
-673541
-688360
-727505
-755264
-767258
-748797
-725747
-623179
-509224
-728536
-846052
-959800
-881048
-863854
-664099
-586351
-502237
-459064
-448207
-428676
-452979
-441658
-464295
-466527
-471667
-475438
-476428
-490450
-489511
-484136
-507427
-523286
-547979
-564290
-568840
-577156
-592929
-595382
-608877
-617391
-640192
-688036
-751639
-761138
-811017
-787582
-784312
-677642
-616674
-782834
-796806
-785679
-735251
-607706
-520379
-492365
-443587
-453012
-444246
-469899
-448402
-489460
-485821
-498299
-499070
-502078
-510999
-531454
-520380
-509634
-537459
-544895
-576303
-576697
-601999
-584697
-589428
-590360
-600064
-574729
-585616
-589207
-636704
-686629
-736875
-744481
-783003
-711876
-631013
-702423
-628780
-623868
-515529
-480395
-423050
-420026
-419869
-450125
-480010
-453160
-510071
-487343
-502517
-501342
-498825
-500073
-495879
-535327
-518607
-510115
-544707
-556939
-590614
-602587
-594663
-610487
-617984
-608241
-627055
-591092
-569969
-555254
-570800
-581448
-649478
-653701
-714530
-705795
-616560
-557063
-488028
-434986
-370298
-341183
-332527
-376577
-416379
-482666
-479043
-501644
-465014
-503522
-499472
-499761
-497645
-482144
-498764
-502681
-538106
-539043
-567746
-585701
-611148
-618122
-632996
-602807
-605322
-607311
-659100
-598558
-550918
-503504
-490654
-488416
-522742
-560431
-598785
-666334
-483315
-380631
-336816
-284700
-246556
-259847
-300557
-375127
-441750
-518544
-491023
-498429
-519780
-537951
-539486
-534334
-500995
-491544
-508478
-506287
-554167
-567882
-581481
-600266
-652400
-688391
-676716
-672355
-636920
-655037
-658973
-677071
-579733
-516112
-463734
-435745
-447127
-476463
-497100
-573338
-445520
-279726
-261119
-188096
-190452
-228577
-305411
-396885
-510760
-522361
-533651
-538798
-538444
-539710
-518507
-497565
-493799
-485812
-494000
-484761
-534540
-559812
-578145
-607541
-635454
-665052
-713633
-694519
-667008
-685049
-697377
-695694
-619857
-520609
-453235
-398329
-379361
-427942
-424182
-543678
-254158
-122784
-158178
-100145
-176705
-244105
-346824
-468227
-523451
-564884
-549287
-543681
-503192
-494309
-478390
-482608
-473419
-491803
-488388
-489170
-511298
-536802
-551200
-579945
-601016
-647525
-634473
-672656
-637112
-680165
-722663
-728555
-692959
-583040
-490281
-427078
-344482
-370726
-338110
-411783
-270705
-141228
-177592
-140194
-240592
-285372
-399285
-477163
-554410
-574963
-562303
-526056
-461143
-441744
-425599
-436355
-442017
-462531
-467884
-468923
-482292
-512506
-523486
-543946
-546819
-564779
-563235
-578525
-550574
-624358
-653582
-721898
-678030
-614574
-517002
-462969
-385365
-394344
-354285
-446222
-131440
-18234.1
-136746
-114439
-258722
-320093
-448561
-542021
-585055
-574384
-523018
-476178
-378864
-362035
-376268
-411962
-434649
-507874
-507278
-472992
-493203
-505797
-509625
-527565
-514533
-534660
-501658
-510980
-450858
-539745
-607594
-670168
-716024
-664846
-570770
-511206
-374650
-389200
-274869
-331620
-126340
-120827
-258438
-225011
-399590
-399577
-516737
-518593
-524478
-481343
-439247
-382632
-332925
-332082
-360330
-393189
-428028
-486624
-474915
-468632
-476744
-496370
-501298
-510303
-488011
-499717
-482900
-472483
-433331
-452343
-515933
-568061
-616578
-657915
-594886
-607990
-472286
-485482
-388182
-359965
-1.08242e+06
-1.08656e+06
-1.15959e+06
-1.16947e+06
-1.27188e+06
-1.29884e+06
-1.33999e+06
-1.29348e+06
-1.18242e+06
-1.00312e+06
-821257
-616078
-749885
-975110
-1.05999e+06
-1.11962e+06
-1.13984e+06
-1.1557e+06
-1.12529e+06
-1.04925e+06
-1.02384e+06
-1.11024e+06
-1.11026e+06
-1.0354e+06
-926469
-763486
-525980
-283431
-559824
-856845
-1.11281e+06
-1.33418e+06
-1.43669e+06
-1.46387e+06
-1.37297e+06
-1.31546e+06
-1.16286e+06
-1.12945e+06
-1.03096e+06
-1.0049e+06
-1.08334e+06
-1.03662e+06
-1.09698e+06
-1.11182e+06
-1.21015e+06
-1.29146e+06
-1.38304e+06
-1.43886e+06
-1.38612e+06
-1.20353e+06
-978443
-647762
-696069
-934247
-1.02447e+06
-1.03683e+06
-996651
-966148
-900378
-796630
-741746
-876814
-909911
-921443
-880064
-734835
-439624
-286004
-754061
-1.11873e+06
-1.41701e+06
-1.59504e+06
-1.58963e+06
-1.48596e+06
-1.32629e+06
-1.211e+06
-1.06144e+06
-1.03308e+06
-945491
-984773
-1.15241e+06
-1.09278e+06
-1.11394e+06
-1.12619e+06
-1.20319e+06
-1.28163e+06
-1.39155e+06
-1.47214e+06
-1.52208e+06
-1.37138e+06
-1.15414e+06
-850962
-856644
-1.04869e+06
-1.06493e+06
-959633
-824873
-726583
-660597
-605938
-537621
-634052
-760195
-886225
-950735
-872277
-640222
-512930
-990360
-1.35429e+06
-1.63666e+06
-1.71744e+06
-1.60428e+06
-1.46629e+06
-1.30195e+06
-1.18889e+06
-1.07049e+06
-1.04509e+06
-1.00414e+06
-1.07111e+06
-1.15862e+06
-1.10527e+06
-1.12118e+06
-1.12467e+06
-1.19388e+06
-1.2826e+06
-1.38822e+06
-1.50987e+06
-1.58098e+06
-1.51698e+06
-1.29622e+06
-1.09246e+06
-1.1881e+06
-1.33022e+06
-1.23348e+06
-1.09573e+06
-874328
-711068
-589565
-491125
-440467
-564177
-746814
-970291
-1.15279e+06
-1.23262e+06
-1.11279e+06
-915831
-1.221e+06
-1.53699e+06
-1.7886e+06
-1.76351e+06
-1.61716e+06
-1.44329e+06
-1.2761e+06
-1.15356e+06
-1.04409e+06
-1.03477e+06
-1.00404e+06
-1.06243e+06
-1.25372e+06
-1.19886e+06
-1.19374e+06
-1.18802e+06
-1.22058e+06
-1.2883e+06
-1.38539e+06
-1.46321e+06
-1.58059e+06
-1.53363e+06
-1.39728e+06
-1.24457e+06
-1.3658e+06
-1.48302e+06
-1.45432e+06
-1.18381e+06
-1.00515e+06
-809022
-692265
-644987
-686376
-770376
-948546
-1.18667e+06
-1.43556e+06
-1.65942e+06
-1.55819e+06
-1.31911e+06
-1.37645e+06
-1.6378e+06
-1.79221e+06
-1.70636e+06
-1.54292e+06
-1.40662e+06
-1.2645e+06
-1.17129e+06
-1.1092e+06
-1.11936e+06
-1.10668e+06
-1.18299e+06
-1.27155e+06
-1.27177e+06
-1.26466e+06
-1.26951e+06
-1.28262e+06
-1.32575e+06
-1.39859e+06
-1.4599e+06
-1.51033e+06
-1.49049e+06
-1.30335e+06
-1.23046e+06
-1.31196e+06
-1.38346e+06
-1.35737e+06
-1.22691e+06
-1.03965e+06
-875304
-851255
-844741
-846399
-911464
-1.05305e+06
-1.31325e+06
-1.54857e+06
-1.65482e+06
-1.60092e+06
-1.43013e+06
-1.39841e+06
-1.50347e+06
-1.66762e+06
-1.58702e+06
-1.50914e+06
-1.39856e+06
-1.29399e+06
-1.22519e+06
-1.18717e+06
-1.18676e+06
-1.17342e+06
-1.20832e+06
-1.30358e+06
-1.3517e+06
-1.36459e+06
-1.36068e+06
-1.36435e+06
-1.38498e+06
-1.43006e+06
-1.4713e+06
-1.50327e+06
-1.47197e+06
-1.34353e+06
-1.13526e+06
-1.09322e+06
-1.17121e+06
-1.15048e+06
-1.05341e+06
-933630
-823821
-833353
-843760
-793607
-855731
-1.00272e+06
-1.1725e+06
-1.3287e+06
-1.41789e+06
-1.40281e+06
-1.29974e+06
-1.288e+06
-1.48092e+06
-1.56096e+06
-1.53727e+06
-1.49508e+06
-1.41873e+06
-1.35492e+06
-1.31155e+06
-1.29605e+06
-1.2882e+06
-1.27482e+06
-1.2828e+06
-1.24984e+06
-1.39652e+06
-1.43432e+06
-1.47426e+06
-1.4312e+06
-1.43352e+06
-1.45933e+06
-1.47809e+06
-1.50045e+06
-1.45813e+06
-1.38596e+06
-1.13461e+06
-1.01626e+06
-977660
-1.00417e+06
-935090
-855942
-757193
-777893
-829906
-772800
-782849
-867090
-984309
-1.05893e+06
-1.10673e+06
-1.05128e+06
-1.08588e+06
-1.17751e+06
-1.42936e+06
-1.509e+06
-1.53464e+06
-1.51435e+06
-1.46513e+06
-1.42461e+06
-1.39136e+06
-1.38287e+06
-1.35482e+06
-1.33318e+06
-1.27716e+06
-1.13413e+06
-1.32608e+06
-1.46397e+06
-1.52031e+06
-1.52565e+06
-1.47011e+06
-1.47271e+06
-1.48155e+06
-1.48117e+06
-1.44733e+06
-1.35761e+06
-1.21008e+06
-1.00155e+06
-906526
-812152
-768272
-693599
-639665
-662623
-748796
-723787
-686014
-724780
-786131
-857787
-883771
-935332
-1.00675e+06
-1.2427e+06
-1.41549e+06
-1.51092e+06
-1.54319e+06
-1.53867e+06
-1.50132e+06
-1.47092e+06
-1.44041e+06
-1.42689e+06
-1.36221e+06
-1.34279e+06
-1.23696e+06
-968891
-1.14763e+06
-1.29811e+06
-1.44002e+06
-1.44548e+06
-1.42429e+06
-1.42796e+06
-1.42692e+06
-1.43646e+06
-1.40008e+06
-1.34568e+06
-1.18834e+06
-1.02545e+06
-797297
-647256
-519952
-466164
-429259
-524471
-668389
-683497
-603807
-566788
-616314
-676637
-788397
-897285
-1.10579e+06
-1.28242e+06
-1.44403e+06
-1.51946e+06
-1.55152e+06
-1.53671e+06
-1.48946e+06
-1.44261e+06
-1.38811e+06
-1.31019e+06
-1.27207e+06
-1.25949e+06
-1.13295e+06
-798740
-933080
-1.09959e+06
-1.2309e+06
-1.32132e+06
-1.24302e+06
-1.27073e+06
-1.33691e+06
-1.3277e+06
-1.32745e+06
-1.27941e+06
-1.1889e+06
-1.01961e+06
-828598
-578862
-378347
-243329
-259597
-410422
-586431
-596379
-531483
-492870
-544149
-665011
-819224
-1.01257e+06
-1.17708e+06
-1.34849e+06
-1.4584e+06
-1.52352e+06
-1.53006e+06
-1.49149e+06
-1.4045e+06
-1.32672e+06
-1.19623e+06
-1.17076e+06
-1.14511e+06
-1.14383e+06
-998392
-647656
-641684
-856927
-1.09568e+06
-1.23413e+06
-1.19454e+06
-1.09587e+06
-1.09408e+06
-1.17892e+06
-1.16583e+06
-1.1849e+06
-1.12461e+06
-1.0396e+06
-877787
-704372
-473743
-325861
-318667
-448508
-571983
-577942
-528230
-529771
-616654
-745857
-917190
-1.06818e+06
-1.22865e+06
-1.35439e+06
-1.44411e+06
-1.48098e+06
-1.4561e+06
-1.36537e+06
-1.22832e+06
-1.12467e+06
-1.05864e+06
-992816
-961232
-939643
-809110
-890082
-846772
-966887
-1.25225e+06
-1.37784e+06
-1.28804e+06
-1.05592e+06
-989318
-970275
-993593
-1.00388e+06
-1.02137e+06
-965636
-883091
-748676
-598017
-468865
-444446
-494206
-561501
-564828
-544106
-583415
-682469
-823110
-963199
-1.11619e+06
-1.24364e+06
-1.36328e+06
-1.42413e+06
-1.44069e+06
-1.37378e+06
-1.21954e+06
-1.07748e+06
-1.08367e+06
-1.02866e+06
-831232
-666304
-657101
-586688
-1.04355e+06
-1.01201e+06
-1.09675e+06
-1.32436e+06
-1.46709e+06
-1.34421e+06
-1.13789e+06
-952827
-877421
-769697
-817572
-862514
-890457
-847077
-791912
-691317
-617582
-580988
-599105
-625367
-628155
-619443
-664526
-754274
-856680
-975485
-1.09498e+06
-1.2128e+06
-1.31501e+06
-1.36263e+06
-1.36814e+06
-1.25482e+06
-1.09934e+06
-978124
-1.08226e+06
-1.06786e+06
-836444
-472112
-320495
-295453
-1.11012e+06
-1.07479e+06
-1.08609e+06
-1.20614e+06
-1.39569e+06
-1.2974e+06
-1.1051e+06
-962271
-780687
-610168
-561256
-672012
-737412
-764541
-743662
-702316
-651850
-624813
-621341
-629475
-629936
-629252
-676429
-747961
-843326
-947150
-1.07515e+06
-1.19423e+06
-1.31075e+06
-1.36105e+06
-1.35182e+06
-1.2284e+06
-1.03273e+06
-946170
-1.05069e+06
-1.05378e+06
-867530
-498616
-264611
-164558
-1.1328e+06
-1.04924e+06
-952821
-1.05267e+06
-1.14254e+06
-1.182e+06
-1.01666e+06
-902335
-740853
-487727
-372496
-455420
-600611
-675072
-721625
-714063
-706131
-686789
-687694
-686767
-681194
-669959
-689161
-727512
-782744
-859216
-963874
-1.09241e+06
-1.22979e+06
-1.30926e+06
-1.31817e+06
-1.18307e+06
-994907
-866304
-940958
-920944
-814115
-580105
-433653
-315501
-1.13611e+06
-996701
-816252
-829638
-961512
-976230
-902979
-817762
-663015
-426745
-232425
-298796
-456571
-576269
-642045
-666358
-669717
-658022
-649811
-638507
-626861
-608944
-610312
-623528
-665745
-738142
-879168
-1.07341e+06
-1.29031e+06
-1.39804e+06
-1.40062e+06
-1.22631e+06
-1.00347e+06
-823488
-833341
-799775
-749760
-626728
-596176
-565756
-1.12602e+06
-948395
-701972
-662567
-766113
-860876
-808866
-731409
-622696
-406600
-264042
-297757
-442979
-552112
-637820
-672556
-696710
-693558
-692539
-677321
-652164
-609014
-568878
-524126
-494916
-510613
-636453
-919924
-1.22162e+06
-1.41342e+06
-1.45078e+06
-1.22999e+06
-979371
-785777
-749836
-709045
-658655
-546892
-734494
-811333
-1.06158e+06
-863583
-610444
-507943
-661623
-820009
-810426
-744349
-636993
-500672
-403947
-405591
-465863
-538265
-600963
-633007
-648939
-638686
-619393
-593984
-561573
-487148
-397749
-296057
-222768
-250446
-557152
-1.09537e+06
-1.50011e+06
-1.57361e+06
-1.49082e+06
-1.25088e+06
-974143
-799629
-759817
-711836
-588556
-365973
-714766
-893032
-961939
-743846
-534476
-414300
-632939
-807105
-793864
-759242
-722325
-633251
-567284
-518398
-532703
-571322
-629798
-663094
-688900
-686255
-677283
-649927
-608049
-520670
-385238
-185058
48541.5
121716
-234387
-810760
-1.19121e+06
-1.36693e+06
-1.39701e+06
-1.13046e+06
-883829
-714002
-684537
-642464
-510104
-222043
-528685
-810021
-971032
-701808
-512182
-424243
-688292
-814934
-746687
-703587
-661907
-607007
-537415
-491348
-505324
-543206
-593643
-618510
-632459
-614749
-585093
-552841
-500352
-342996
-80490.4
310910
662841
414004
-390327
-1.11757e+06
-1.46281e+06
-1.3753e+06
-1.21516e+06
-988425
-769699
-632764
-611415
-603570
-578706
-420680
-583033
-785991
-1.06709e+06
-835974
-641859
-582268
-785475
-904169
-856926
-764429
-663496
-538938
-468772
-445005
-491350
-551027
-612135
-646147
-667988
-664315
-653126
-628481
-596683
-510357
-372032
-170600
56138.9
93694.7
-254990
-812664
-1.16075e+06
-1.33404e+06
-1.25855e+06
-987941
-766339
-588604
-575510
-588568
-648964
-567090
-645833
-825748
-1.05406e+06
-866151
-776587
-788007
-979800
-1.0767e+06
-1.00502e+06
-855010
-710282
-520416
-436813
-439783
-512077
-568374
-622274
-641191
-649724
-633586
-616323
-598465
-577475
-517068
-443872
-360789
-304909
-339949
-625878
-1.1429e+06
-1.54016e+06
-1.45067e+06
-1.24931e+06
-1.1006e+06
-856736
-703084
-691374
-691883
-741929
-685626
-711983
-844021
-944724
-845376
-870270
-1.00159e+06
-1.20832e+06
-1.36499e+06
-1.18413e+06
-970765
-775711
-589506
-509275
-546272
-615404
-671890
-708741
-721567
-721967
-711936
-703937
-698166
-690290
-666319
-641119
-618138
-614822
-658119
-782940
-1.0289e+06
-1.26177e+06
-1.38125e+06
-1.37869e+06
-1.15297e+06
-893780
-760426
-851027
-836026
-817029
-725675
-658626
-687777
-792518
-753198
-877022
-1.15859e+06
-1.49557e+06
-1.56417e+06
-1.33536e+06
-1.03077e+06
-834567
-642344
-620421
-649998
-722295
-739057
-752029
-733410
-719207
-695940
-687967
-689837
-694302
-690602
-703313
-731285
-791078
-886569
-1.03789e+06
-1.22534e+06
-1.40073e+06
-1.44562e+06
-1.39085e+06
-1.23457e+06
-957244
-901893
-1.04434e+06
-1.09845e+06
-974102
-735680
-605479
-520491
-576130
-531853
-720311
-1.1673e+06
-1.64114e+06
-1.64402e+06
-1.41163e+06
-1.07417e+06
-848106
-753210
-762223
-818524
-846398
-848958
-827662
-798597
-767434
-745077
-736818
-748446
-758523
-763695
-788875
-831369
-897601
-984115
-1.10095e+06
-1.22453e+06
-1.34431e+06
-1.38745e+06
-1.37599e+06
-1.22238e+06
-1.01601e+06
-962492
-1.14999e+06
-1.21793e+06
-1.03609e+06
-647335
-405951
-345733
-251351
-168294
-412248
-958964
-1.45242e+06
-1.54783e+06
-1.37475e+06
-1.01554e+06
-896208
-849732
-925806
-934277
-943932
-897814
-855003
-792312
-745640
-706047
-696086
-713616
-739589
-753825
-797861
-862292
-951458
-1.05945e+06
-1.18696e+06
-1.31047e+06
-1.41834e+06
-1.46271e+06
-1.44053e+06
-1.32318e+06
-1.09668e+06
-1.06821e+06
-1.19838e+06
-1.21529e+06
-985778
-595566
-451670
-453303
-177118
-225417
-453640
-842397
-1.23014e+06
-1.37435e+06
-1.2742e+06
-1.06832e+06
-978002
-1.04943e+06
-1.06919e+06
-1.07227e+06
-1.02833e+06
-967203
-886942
-810961
-738129
-690149
-664298
-696959
-737537
-757675
-803410
-869653
-959062
-1.06029e+06
-1.18307e+06
-1.2915e+06
-1.40036e+06
-1.44881e+06
-1.47303e+06
-1.38223e+06
-1.23845e+06
-1.10948e+06
-1.17471e+06
-1.12648e+06
-937913
-739958
-718358
-667681
-541467
-770890
-1.01916e+06
-1.26651e+06
-1.39896e+06
-1.42627e+06
-1.28928e+06
-1.19748e+06
-1.21805e+06
-1.20298e+06
-1.20309e+06
-1.14433e+06
-1.07713e+06
-970018
-868683
-755262
-658696
-592162
-571647
-619440
-684536
-708299
-760866
-830181
-925105
-1.04092e+06
-1.16951e+06
-1.29403e+06
-1.41053e+06
-1.49124e+06
-1.52911e+06
-1.51762e+06
-1.40271e+06
-1.29443e+06
-1.26342e+06
-1.22221e+06
-1.14469e+06
-1.06297e+06
-1.01358e+06
-890093
-843838
-1.13087e+06
-1.38115e+06
-1.58333e+06
-1.66976e+06
-1.5673e+06
-1.49362e+06
-1.41533e+06
-1.35282e+06
-1.32842e+06
-1.27119e+06
-1.1963e+06
-1.08215e+06
-964153
-825215
-700286
-596831
-548872
-533615
-625756
-672030
-699066
-726400
-768840
-848215
-957907
-1.09737e+06
-1.22574e+06
-1.35873e+06
-1.45533e+06
-1.53386e+06
-1.54888e+06
-1.54078e+06
-1.46065e+06
-1.43633e+06
-1.38272e+06
-1.33112e+06
-1.27104e+06
-1.21436e+06
-1.06207e+06
-1.11292e+06
-1.42918e+06
-1.64824e+06
-1.80205e+06
-1.80293e+06
-1.68882e+06
-1.54189e+06
-1.46509e+06
-1.41177e+06
-1.36255e+06
-1.29174e+06
-1.17434e+06
-1.05039e+06
-889915
-750751
-633148
-561764
-529543
-546655
-655996
-687063
-689091
-701822
-717310
-765641
-849161
-976382
-1.12895e+06
-1.28556e+06
-1.4137e+06
-1.51504e+06
-1.56748e+06
-1.58454e+06
-1.57707e+06
-1.57073e+06
-1.58478e+06
-1.52737e+06
-1.45516e+06
-1.38673e+06
-1.22078e+06
-1.3202e+06
-1.57171e+06
-1.686e+06
-1.72696e+06
-1.67373e+06
-1.55609e+06
-1.4843e+06
-1.4511e+06
-1.40305e+06
-1.35737e+06
-1.25563e+06
-1.13111e+06
-958985
-827232
-714971
-660740
-629494
-628488
-669487
-753978
-768482
-741781
-719368
-712292
-746163
-790967
-877977
-989861
-1.15625e+06
-1.31494e+06
-1.44992e+06
-1.51293e+06
-1.55207e+06
-1.55041e+06
-1.5547e+06
-1.56851e+06
-1.584e+06
-1.53435e+06
-1.48249e+06
-1.34097e+06
-1.40491e+06
-1.54035e+06
-1.5516e+06
-1.56361e+06
-1.49247e+06
-1.454e+06
-1.41109e+06
-1.39662e+06
-1.36319e+06
-1.30695e+06
-1.19619e+06
-1.01399e+06
-894064
-790638
-749313
-721710
-715010
-725888
-747153
-827187
-799517
-749295
-733453
-728380
-768132
-817873
-866493
-933609
-1.04031e+06
-1.19368e+06
-1.37256e+06
-1.45722e+06
-1.50022e+06
-1.50684e+06
-1.50672e+06
-1.49773e+06
-1.51929e+06
-1.49261e+06
-1.47639e+06
-1.39835e+06
-1.40778e+06
-1.41483e+06
-1.39517e+06
-1.37143e+06
-1.33259e+06
-1.3143e+06
-1.30897e+06
-1.32302e+06
-1.30206e+06
-1.24374e+06
-1.0814e+06
-933938
-874002
-863628
-820922
-785698
-768777
-763136
-784713
-814523
-813231
-769340
-756455
-765006
-825302
-908442
-997213
-1.0277e+06
-1.05215e+06
-1.09169e+06
-1.29197e+06
-1.38207e+06
-1.42483e+06
-1.42382e+06
-1.41412e+06
-1.39896e+06
-1.40141e+06
-1.40152e+06
-1.39549e+06
-1.39357e+06
-1.30617e+06
-1.24958e+06
-1.22671e+06
-1.19846e+06
-1.18269e+06
-1.2003e+06
-1.23224e+06
-1.26468e+06
-1.24918e+06
-1.17569e+06
-994175
-953708
-989207
-995662
-942880
-869401
-789507
-759175
-766102
-773621
-796706
-778029
-773522
-800911
-921114
-1.06714e+06
-1.17777e+06
-1.21246e+06
-1.16024e+06
-1.14085e+06
-1.26425e+06
-1.37389e+06
-1.38374e+06
-1.37383e+06
-1.34245e+06
-1.31214e+06
-1.30178e+06
-1.30404e+06
-1.30188e+06
-1.33183e+06
-1.23459e+06
-1.12627e+06
-1.10831e+06
-1.06933e+06
-1.08344e+06
-1.12422e+06
-1.18257e+06
-1.22474e+06
-1.22873e+06
-1.12079e+06
-990048
-944843
-1.00508e+06
-1.03075e+06
-956903
-854709
-786924
-711101
-656844
-608157
-635746
-659651
-736588
-836402
-970680
-1.08771e+06
-1.28447e+06
-1.2944e+06
-1.19482e+06
-1.15072e+06
-1.25248e+06
-1.3815e+06
-1.38592e+06
-1.34038e+06
-1.29197e+06
-1.24194e+06
-1.21272e+06
-1.22739e+06
-1.22152e+06
-1.28801e+06
-1.08183e+06
-985359
-993620
-967141
-1.028e+06
-1.0909e+06
-1.16768e+06
-1.22719e+06
-1.19908e+06
-1.08205e+06
-946587
-815461
-816065
-875182
-857828
-808539
-737367
-679279
-616124
-522134
-461246
-563433
-691620
-812980
-951528
-1.11053e+06
-1.19465e+06
-1.21605e+06
-1.07827e+06
-1.09736e+06
-1.2531e+06
-1.37037e+06
-1.41453e+06
-1.35393e+06
-1.28423e+06
-1.22369e+06
-1.15671e+06
-1.15821e+06
-1.14027e+06
-1.18997e+06
-1.04963e+06
-956151
-968447
-957356
-1.03374e+06
-1.08368e+06
-1.16203e+06
-1.19222e+06
-1.16239e+06
-1.05837e+06
-917985
-717128
-561560
-617700
-693059
-729332
-715074
-679197
-599368
-546475
-542335
-656801
-761585
-856204
-947817
-1.04392e+06
-1.06853e+06
-1.01601e+06
-866301
-995963
-1.17057e+06
-1.32718e+06
-1.37513e+06
-1.35012e+06
-1.27942e+06
-1.22404e+06
-1.15852e+06
-1.14942e+06
-1.12641e+06
-1.18525e+06
-948587
-874404
-931135
-930338
-1.02686e+06
-1.07674e+06
-1.15351e+06
-1.18238e+06
-1.14217e+06
-1.03781e+06
-879096
-665572
-396725
-436336
-598267
-712902
-764146
-797424
-708425
-602610
-707243
-822230
-918291
-999173
-1.03792e+06
-1.07479e+06
-1.03269e+06
-925163
-738296
-899909
-1.08204e+06
-1.23112e+06
-1.33689e+06
-1.34143e+06
-1.28733e+06
-1.23782e+06
-1.14508e+06
-1.13848e+06
-1.07703e+06
-1.11174e+06
-930922
-918407
-993234
-984985
-1.08822e+06
-1.09259e+06
-1.14085e+06
-1.10021e+06
-1.02888e+06
-905005
-757157
-575282
-356485
-384506
-568632
-743924
-878307
-1.01737e+06
-946826
-813115
-807147
-871362
-979636