/*--------------------------------*- C++ -*----------------------------------*\
  =========                 |
  \\      /  F ield         | OpenFOAM: The Open Source CFD Toolbox
   \\    /   O peration     | Website:  https://openfoam.org
    \\  /    A nd           | Version:  11
     \\/     M anipulation  |
\*---------------------------------------------------------------------------*/
FoamFile
{
    format      ascii;
    class       surfaceScalarField;
    location    "300";
    object      phi;
}
// * * * * * * * * * * * * * * * * * * * * * * * * * * * * * * * * * * * * * //

dimensions      [0 3 -1 0 0 0 0];

internalField   nonuniform List<scalar> 
376000
(
-0.00324024
-0.000494447
1.65843
0.163806
-0.176897
4.05783
0.257229
-0.104751
6.01147
0.473484
-0.232751
8.34003
0.706466
-0.248418
10.6866
0.944429
-0.257186
12.9009
1.13499
-0.208993
14.853
1.20855
-0.0947147
16.2996
1.13017
0.0555766
17.2802
0.98441
0.119792
17.886
0.700731
0.26488
18.3099
0.128458
0.632464
24.4594
-0.389732
0.523065
39.3438
-0.548386
0.134386
45.9983
-0.490681
-0.0851736
52.5123
-0.290347
-0.234246
58.0016
-0.00217903
-0.325949
62.1272
0.26885
-0.310827
62.835
0.350604
-0.121102
56.12
0.051034
0.269396
46.1314
-0.346165
0.366501
41.9413
-0.432131
0.0420938
50.73
-0.200484
-0.269851
62.4318
0.0853348
-0.316734
64.3985
0.24519
-0.181556
59.1938
0.225995
0.0107203
52.529
-0.10815
0.343952
45.3382
-0.697715
0.692673
32.0014
-1.15972
0.453597
19.6261
-1.40934
0.206285
18.8538
-1.57629
0.128122
18.7547
-1.60875
0.00198042
18.1173
-1.46424
-0.172091
17.0578
-1.20936
-0.278006
15.3686
-0.904933
-0.329592
13.2155
-0.628002
-0.297722
10.814
-0.353669
-0.297083
8.3734
-0.234512
-0.13599
5.90625
-0.0360216
-0.212255
3.95276
-0.0435498
1.79458
-0.167927
0.157651
4.04803
-0.176143
-0.186474
6.34357
-0.0720263
-0.229203
8.8069
0.0723516
-0.40466
11.7311
0.343054
-0.547955
14.7883
0.644553
-0.590224
17.4917
0.988296
-0.584789
19.9101
1.26086
-0.400341
21.5369
1.30388
-0.0192303
22.0553
1.05574
0.333314
22.1279
0.611912
0.687663
21.9001
0.130403
1.20385
29.8844
-0.276977
0.965717
49.1264
-0.521119
0.368745
61.2786
-0.613274
-0.0104636
69.7731
-0.600186
-0.258016
76.3316
-0.519731
-0.41118
81.4271
-0.440989
-0.390696
84.2942
-0.302687
-0.248672
82.333
-0.0618943
0.0685801
67.8643
0.290636
0.0681375
64.2478
0.540528
-0.192121
79.4306
0.590894
-0.315383
83.7896
0.542513
-0.272013
82.5696
0.418343
-0.0664247
77.783
0.166336
0.252462
70.4749
-0.191003
0.753508
59.0211
-0.671928
1.30323
38.6093
-1.25598
1.03374
23.7722
-1.65781
0.553673
23.722
-1.79786
0.223558
24.3313
-1.63248
-0.202438
24.1583
-1.26
-0.581631
23.158
-0.845288
-0.730034
21.0838
-0.473751
-0.740638
18.3928
-0.14361
-0.664111
15.371
0.0473745
-0.524992
12.1556
0.173615
-0.290233
8.89212
0.193294
-0.257054
6.34217
0.134451
3.97892
-0.0953523
0.241758
5.97837
-0.214661
-0.0875328
8.79404
-0.223465
-0.246243
11.8297
-0.189513
-0.471575
15.1592
-0.0819779
-0.692102
18.5977
0.104081
-0.817717
21.8684
0.371819
-0.895327
24.7518
0.726798
-0.803564
26.626
0.940296
-0.28141
25.9575
0.86387
0.368976
24.8776
0.589446
0.953642
24.6226
0.268607
1.61403
33.7593
-0.128638
1.4061
53.2081
-0.48736
0.716626
67.3661
-0.619544
0.112215
75.6812
-0.602394
-0.26449
81.0243
-0.533048
-0.450716
87.2309
-0.422653
-0.464329
94.636
-0.298336
-0.340428
101.53
0.0264031
-0.220647
104.93
0.456543
-0.311483
102.472
0.631928
-0.326155
101.247
0.645255
-0.301492
97.195
0.570385
-0.188025
91.8844
0.424682
0.0722571
86.4903
0.162709
0.512053
79.1266
-0.194867
1.16184
67.2873
-0.581811
1.83402
45.3595
-1.01633
1.50021
27.378
-1.29377
0.778
26.4815
-1.27265
0.151249
27.8811
-0.953835
-0.57324
28.8245
-0.552896
-1.03195
28.4791
-0.236801
-1.09505
26.1827
-0.0047849
-1.02194
23.085
0.139477
-0.853539
19.4208
0.193447
-0.621374
15.7145
0.201755
-0.333195
12.0743
0.0903143
-0.17465
8.85834
0.206737
5.76271
-0.221595
0.446947
8.2856
-0.390857
0.0542331
11.6773
-0.452884
-0.217349
15.1385
-0.468956
-0.496862
18.8513
-0.419388
-0.786886
22.7009
-0.304353
-0.981139
26.3901
-0.155417
-1.09531
29.6573
0.109289
-1.11762
32.1785
0.504377
-0.742283
31.1279
0.598108
0.241283
27.5771
0.522534
1.03408
27.3565
0.510111
1.68844
36.3865
0.285956
1.62088
50.5811
-0.143093
1.0985
59.894
-0.514858
0.471843
66.5271
-0.661744
-0.107535
69.6455
-0.587942
-0.490505
73.5982
-0.451574
-0.549888
80.2152
-0.327003
-0.40791
87.6392
-0.046048
-0.427141
90.203
0.354859
-0.6149
82.4866
0.588786
-0.480499
82.9182
0.707633
-0.367752
81.156
0.733894
-0.193603
78.291
0.559059
0.241083
75.9985
0.154908
0.876942
72.8329
-0.254529
1.55963
66.0569
-0.464077
2.1351
49.271
-0.659446
1.76435
31.3029
-0.815819
0.896997
28.4237
-0.6395
-0.069226
30.3849
-0.225907
-1.04463
33.8234
0.0530205
-1.36291
33.7451
0.25663
-1.35585
31.199
0.397457
-1.22038
27.6995
0.475195
-0.986284
23.7259
0.475856
-0.674948
19.5855
0.410299
-0.311536
15.5626
0.246634
-0.0486898
11.833
0.427605
8.15292
-0.23501
0.666692
10.6025
-0.525219
0.315783
14.7003
-0.664452
-0.114703
18.5157
-0.754278
-0.452209
22.645
-0.777753
-0.814624
26.9455
-0.745099
-1.0686
31.1567
-0.645985
-1.25064
34.9198
-0.544562
-1.27613
37.6938
-0.134042
-1.19568
39.088
0.381659
-0.350653
30.0013
0.514437
0.911639
29.785
0.714277
1.50624
37.3201
0.837279
1.45426
46.74
0.703792
1.16213
52.2983
0.347827
0.766446
53.411
-0.0903403
0.329178
53.4469
-0.431195
-0.131223
61.5854
-0.536193
-0.401574
65.1443
-0.456867
-0.428351
68.0113
-0.171866
-0.64652
65.6034
0.185398
-0.914661
60.3805
0.359138
-0.587955
61.1887
0.370536
-0.326344
62.0228
0.191112
0.00336748
62.8682
-0.126644
0.523923
60.6
-0.455035
1.10757
61.4899
-0.609577
1.64333
59.9119
-0.469737
2.01475
49.7229
-0.377239
1.73968
34.9966
-0.281246
0.791212
29.8578
0.185394
-0.618969
32.5338
0.539617
-1.44224
39.9532
0.669967
-1.55358
39.0263
0.784536
-1.53397
36.402
0.820516
-1.32096
32.5399
0.798259
-1.02549
28.0881
0.684997
-0.618645
23.465
0.545139
-0.218804
18.9923
0.261532
0.194197
14.8641
0.664558
10.4689
-0.243153
0.890736
12.7712
-0.562121
0.603518
17.3196
-0.781332
0.0633344
21.6786
-0.942511
-0.339126
26.2477
-1.02927
-0.782155
31.0719
-1.05889
-1.09684
35.9656
-1.03748
-1.33102
40.5059
-0.968469
-1.40401
44.077
-0.869783
-1.34698
46.1672
-0.220063
-1.02892
46.1301
0.580597
0.1231
32.3562
0.9515
1.13158
37.4079
1.21497
1.14649
43.0063
1.31674
1.00303
46.6852
1.26746
0.772257
48.1171
0.994007
0.591158
48.711
0.4264
0.449806
49.065
-0.164595
0.215617
54.0449
-0.391994
-0.181786
58.2577
-0.33132
-0.693581
58.6927
-0.350788
-0.865862
57.5305
-0.571579
-0.328324
53.1813
-0.879546
-0.00220327
50.8605
-1.136
0.239918
50.5155
-1.21225
0.53891
53.0229
-1.13057
0.927847
54.203
-0.913371
1.32942
53.3626
-0.562892
1.62125
47.4029
-0.238992
1.44629
37.329
0.446872
0.102274
31.2585
1.00229
-1.18771
44.5322
1.09804
-1.58696
46.4227
1.15974
-1.67734
45.2166
1.16323
-1.60473
41.9915
1.10952
-1.33545
37.4398
0.997301
-0.978771
32.2981
0.823771
-0.505882
27.1014
0.610977
-0.058462
22.175
0.296005
0.464953
17.5469
0.930946
12.6834
-0.18977
1.06224
14.6571
-0.553613
0.935493
19.6632
-0.85858
0.325999
24.4998
-1.0463
-0.202023
29.4066
-1.19841
-0.685485
34.7235
-1.28278
-1.07107
40.4049
-1.31622
-1.35738
45.972
-1.27843
-1.50111
50.7405
-1.20524
-1.47352
54.1316
-1.00177
-1.27387
55.516
-0.0836536
-0.821449
54.1549
0.912486
0.173223
41.7669
1.32965
0.732755
44.0524
1.50578
0.824357
46.1516
1.42674
0.850982
47.6076
1.19149
0.835619
48.8709
0.784169
0.879219
50.3473
0.14431
0.889262
54.0436
-0.315896
0.295847
60.013
-0.465462
-0.532126
62.8184
-0.717488
-0.578841
60.3361
-1.14123
0.135309
52.7436
-1.50841
0.388956
50.3127
-1.66126
0.391395
49.4244
-1.66659
0.513334
49.3214
-1.52175
0.724182
49.1777
-1.17875
0.918012
48.1823
-0.666344
1.06055
44.9047
0.333716
0.457093
39.5871
1.2315
-0.823649
50.6303
1.45331
-1.44713
54.4958
1.5074
-1.69609
54.6775
1.5035
-1.73861
52.1443
1.43151
-1.60273
47.7086
1.30518
-1.27894
42.0928
1.12314
-0.863732
36.0588
0.891957
-0.336723
30.2567
0.628153
0.150945
24.9555
0.276255
0.772816
19.9124
1.18019
14.6781
-0.0727665
1.11423
16.0142
-0.346395
1.17622
21.1171
-0.745973
0.67702
26.1694
-1.06943
0.0734385
31.8591
-1.22353
-0.586284
37.3864
-1.35188
-1.00036
43.8852
-1.45572
-1.31179
50.6646
-1.48839
-1.52799
56.8313
-1.45561
-1.56159
61.817
-1.36529
-1.41166
65.0171
-1.09215
-1.12171
66.0844
-0.251645
-0.666719
64.3343
0.566665
-0.0146888
56.0571
0.934622
0.481699
52.9994
1.02335
0.793284
52.6144
0.852444
1.03814
52.9219
0.558968
1.21286
54.0178
0.282306
1.21369
57.7554
0.0451906
0.575036
65.4522
-0.237513
-0.233024
68.7222
-0.46427
-0.324222
67.5922
-0.685579
0.40483
60.3181
-0.971718
0.71254
55.4702
-1.20481
0.654405
53.8984
-1.30866
0.636237
52.8058
-1.12587
0.553504
51.9193
-0.693146
0.48897
51.1055
0.264258
0.147924
50.8322
1.32861
-0.587737
59.6864
1.70555
-1.2152
64.8205
1.78058
-1.56621
65.4241
1.76047
-1.73607
63.2449
1.66695
-1.71363
58.8549
1.51181
-1.51868
52.8483
1.3069
-1.14323
45.8734
1.05857
-0.681883
38.7411
0.796932
-0.137387
32.2587
0.525915
0.364097
26.3414
0.223521
1.03089
21.4188
1.37548
16.2839
0.0723817
1.01903
16.9405
0.0450861
1.17169
21.503
-0.174293
0.851108
25.0372
-0.63418
0.467507
29.9199
-1.11888
-0.140603
38.5771
-1.28526
-0.885105
45.8736
-1.42203
-1.22649
53.9878
-1.51728
-1.48759
61.7595
-1.54852
-1.58465
68.5446
-1.52847
-1.48034
73.7102
-1.44405
-1.24155
76.7454
-1.23832
-0.884276
77.2925
-0.72743
-0.513617
74.9279
-0.178623
-0.00265031
67.072
0.171862
0.510534
62.4123
0.333115
0.939754
59.8034
0.328977
1.28006
59.8465
0.391124
1.22124
63.7288
0.406865
0.613075
71.2516
0.0813142
0.120549
74.5761
-0.222641
0.000772566
75.0166
-0.265735
0.5002
71.7771
-0.239339
0.751676
66.0113
-0.195472
0.670307
64.647
-0.0160775
0.518658
64.3874
0.316158
0.278258
65.4632
0.900964
-0.0316313
68.2012
1.56721
-0.493351
74.7721
1.88269
-0.913583
77.5877
1.9548
-1.32424
77.6754
1.90813
-1.57403
75.3616
1.78918
-1.68269
70.8865
1.61758
-1.61197
64.5468
1.39236
-1.36294
56.7548
1.11724
-0.932588
48.1286
0.784103
-0.410505
39.6554
0.494849
0.089183
32.0448
0.335906
0.468604
25.9017
0.152982
1.17551
22.0978
1.50231
17.4984
0.117664
0.87665
17.5048
0.370251
0.885317
21.4811
0.448662
0.735465
24.0023
0.366405
0.520932
26.5996
-0.227591
0.393239
28.4418
-0.948046
-0.194735
45.8165
-1.21675
-0.994547
55.3179
-1.36644
-1.38395
64.9433
-1.44216
-1.55637
73.6879
-1.47023
-1.50104
81.0749
-1.46018
-1.29099
86.5109
-1.38755
-0.981501
89.7562
-1.26873
-0.626666
90.5897
-0.97519
-0.254979
88.1731
-0.570951
0.199105
80.9218
-0.186952
0.664555
75.244
0.143503
1.06524
71.9974
0.461028
1.01238
76.2199
0.5484
0.604175
83.9403
0.348295
0.351997
85.8767
0.110981
0.257246
86.225
0.144347
0.518279
85.9491
0.403501
0.576132
83.6489
0.66699
0.490419
83.5258
0.975004
0.286153
84.7135
1.32651
-0.0114841
87.2636
1.65796
-0.340945
91.3742
1.83421
-0.674875
92.5254
1.91259
-1.02323
91.4975
1.8806
-1.34019
88.6021
1.76557
-1.51993
83.7586
1.59138
-1.57553
77.0939
1.36427
-1.45277
68.759
1.05258
-1.11425
58.9551
0.62316
-0.556852
48.0993
0.198595
-0.0482463
37.3557
0.104708
0.150943
28.1156
0.158889
0.391959
25.1238
0.0830229
1.21831
22.3485
1.55901
18.344
0.323691
0.539033
18.1371
0.771457
0.429853
21.6304
1.0488
0.46822
24.5444
1.12666
0.463084
27.4567
1.00467
0.532723
29.8053
0.199163
0.626805
32.5306
-0.756484
-0.056225
53.6599
-1.07037
-1.09595
66.0304
-1.20081
-1.46004
76.7268
-1.25792
-1.48312
86.5035
-1.28227
-1.30626
94.2235
-1.27584
-1.01772
99.9089
-1.21731
-0.699076
103.532
-1.11042
-0.345769
104.801
-0.873807
0.018438
102.54
-0.506839
0.397752
98.3545
-0.0513031
0.739706
94.2749
0.327206
0.749477
97.2265
0.443041
0.556824
101.427
0.39753
0.426148
98.5239
0.36585
0.318249
98.7843
0.487103
0.450241
101.284
0.74874
0.385004
103.734
1.02857
0.275416
104.953
1.29972
0.0650933
106.367
1.51567
-0.208306
108.5
1.65319
-0.482211
108.239
1.74559
-0.793069
106.16
1.74991
-1.0678
102.53
1.66324
-1.30656
97.2989
1.50003
-1.41711
90.3943
1.26924
-1.40844
81.7739
0.967082
-1.211
71.4712
0.462009
-0.658627
59.1584
-0.174897
0.0314004
43.7742
-0.37592
0.159514
33.4061
-0.228384
0.0156195
29.6074
-0.109456
0.273252
25.1376
-0.0169066
1.09828
22.2244
1.51814
18.8355
0.676342
-0.0738394
27.975
1.22336
-0.0282156
33.9708
1.61945
0.142717
36.9734
1.67063
0.450666
38.5219
1.47431
0.72797
38.3047
1.09797
0.990033
37.7515
0.165793
0.916692
42.4678
-0.635993
-0.291673
64.4441
-0.848839
-1.25679
77.3442
-0.948156
-1.40735
89.7851
-0.988007
-1.29517
99.9254
-1.00331
-1.031
107.777
-0.985249
-0.735471
113.684
-0.914685
-0.421315
117.684
-0.771805
-0.106493
119.696
-0.521318
0.198623
119.007
-0.152444
0.454328
117.63
0.163041
0.511995
118.772
0.32542
0.44666
118.937
0.381874
0.400639
113.271
0.435739
0.298994
114.121
0.606363
0.329387
118.207
0.824391
0.216484
122.065
1.04468
0.0931054
123.443
1.23762
-0.109732
124.193
1.37875
-0.350024
123.396
1.48273
-0.604251
120.79
1.51775
-0.859333
116.734
1.48009
-1.07318
111.22
1.35972
-1.23784
104.205
1.14879
-1.26304
95.5792
0.874116
-1.19116
85.2154
0.442637
-0.828994
72.9075
-0.271279
0.0275482
56.003
-0.753833
0.521009
42.8321
-0.809369
0.246944
39.6599
-0.722063
-0.0111409
35.3211
-0.493912
0.0908324
27.2204
-0.142443
0.731079
21.8495
1.35224
18.9794
0.425874
-0.523975
40.337
0.805504
-0.407474
51.0029
1.2223
-0.259399
55.671
1.47399
0.169051
51.5575
1.34184
0.806537
46.8508
1.07246
1.2152
42.8765
0.686424
1.30919
44.441
-0.0249813
0.487102
56.9202
-0.492684
-0.774376
75.1007
-0.603344
-1.2903
90.6986
-0.67763
-1.23402
103.573
-0.71621
-1.01108
113.678
-0.72604
-0.742736
121.435
-0.695987
-0.460033
127.327
-0.60709
-0.192945
131.511
-0.443766
0.056149
133.591
-0.200729
0.248806
134.526
0.0242327
0.327067
135.195
0.193538
0.310503
133.779
0.315655
0.304282
127.453
0.429656
0.211928
128.584
0.598574
0.194965
133.273
0.780957
0.0631367
136.787
0.95943
-0.0692476
137.659
1.11374
-0.261126
137.058
1.23412
-0.4805
134.501
1.3064
-0.696485
130.52
1.32158
-0.904956
125.076
1.25727
-1.04661
118.224
1.09909
-1.12453
109.837
0.846772
-1.05843
99.8881
0.502836
-0.893614
88.0776
-0.0425974
-0.311337
73.4978
-0.578137
0.574695
53.3409
-0.860085
0.790571
48.7085
-1.0054
0.39825
50.6498
-1.01474
0.0785515
50.2039
-0.812747
0.0177048
40.1998
-0.32607
0.321019
25.671
1.01646
18.995
0.0766066
-0.629672
46.472
0.269902
-0.620094
62.1194
0.566838
-0.572752
68.0265
0.957635
-0.269629
60.4968
1.06911
0.627414
52.064
0.949274
1.28378
46.439
0.802341
1.45902
46.4256
0.464931
0.852628
53.497
0.00490024
-0.247272
67.6941
-0.229997
-1.01271
88.4448
-0.319208
-1.12734
104.908
-0.391651
-0.9426
117.679
-0.429777
-0.711811
127.34
-0.430575
-0.464784
134.77
-0.38058
-0.24173
140.466
-0.278733
-0.0364808
144.35
-0.122938
0.112393
146.606
0.0308768
0.195685
147.52
0.167343
0.196096
146.133
0.28967
0.201387
140.417
0.39935
0.12225
141.421
0.538081
0.0800426
145.992
0.672906
-0.0552632
148.83
0.803743
-0.193562
148.867
0.922887
-0.382522
146.867
1.01559
-0.583662
143.217
1.08056
-0.779762
138.156
1.08953
-0.939613
131.628
1.02869
-1.01768
123.704
0.861922
-0.996004
114.316
0.605485
-0.842062
103.48
0.214908
-0.541804
90.6702
-0.199227
0.103815
73.209
-0.464492
0.854035
56.9019
-0.682477
0.988405
53.5178
-0.802065
0.485987
58.8784
-0.832206
0.126479
64.6581
-0.775144
0.0571628
61.1741
-0.479988
0.167238
43.7034
0.63218
24.2885
-0.115802
-0.545862
52.8432
-0.0660282
-0.690052
70.1649
0.0262221
-0.677095
75.958
0.37244
-0.621666
67.0901
0.706419
0.240418
52.8803
0.758154
1.19665
47.9688
0.854491
1.3667
47.9246
0.78822
0.951883
53.1166
0.502781
0.107067
63.241
0.204121
-0.622424
81.6477
0.0298722
-0.897368
102.847
-0.0936196
-0.80088
119.667
-0.18144
-0.620995
131.495
-0.230465
-0.415582
140.401
-0.232998
-0.23799
147.231
-0.191816
-0.0727892
152.243
-0.107587
0.0377896
155.347
-0.0104733
0.110644
156.633
0.0885888
0.10921
155.463
0.193923
0.107311
150.347
0.296591
0.0306728
151.27
0.416581
-0.0271187
155.644
0.535309
-0.166405
157.665
0.659366
-0.315879
156.698
0.781386
-0.507602
153.935
0.89462
-0.705112
149.523
0.984468
-0.881188
143.731
1.02756
-0.998634
136.432
0.984374
-0.994165
127.864
0.82345
-0.861204
118.008
0.525978
-0.573881
107.018
0.112663
-0.153991
94.0804
-0.185238
0.415353
77.2647
-0.327398
1.02634
61.2899
-0.432268
1.08755
57.1036
-0.462514
0.484555
63.5061
-0.445888
0.101621
74.0768
-0.359129
0.0090806
77.9219
-0.245506
0.125489
63.9147
0.502506
40.1553
-0.248776
-0.333902
57.978
-0.289208
-0.662413
76.5768
-0.302162
-0.65336
81.5011
-0.165968
-0.746272
70.4128
0.294771
-0.224908
55.1747
0.614498
0.871672
49.1382
0.862081
1.13164
49.4016
1.04705
0.800503
53.4923
0.935825
0.285529
60.6134
0.668556
-0.245686
76.2013
0.41553
-0.544332
98.9191
0.226233
-0.559731
119.073
0.0909102
-0.462312
133.546
0.00481263
-0.318689
144.182
-0.0324492
-0.193594
152.245
-0.027735
-0.070683
158.053
0.0114083
0.00728491
161.918
0.0674644
0.064263
163.612
0.128804
0.0576966
162.782
0.198497
0.0460713
158.3
0.263724
-0.0254986
159.04
0.339004
-0.0919693
163.165
0.411431
-0.231265
164.34
0.489776
-0.390101
162.705
0.578254
-0.594622
159.185
0.683093
-0.810595
153.933
0.808623
-1.0085
147.221
0.91927
-1.11312
138.972
0.952036
-1.03591
129.739
0.844218
-0.772311
119.756
0.567696
-0.32135
109.357
0.176606
0.214947
97.1954
-0.0893854
0.6927
82.1193
-0.161259
1.13513
66.112
-0.15504
1.09825
60.45
-0.133421
0.461918
67.4755
-0.124245
0.0935304
81.1653
-0.0202427
-0.0870998
89.4322
0.0650815
0.058199
75.4031
0.623952
53.1719
-0.319878
-0.0524943
61.6262
-0.412192
-0.577032
81.5745
-0.448345
-0.58918
87.9728
-0.490474
-0.671482
74.9004
-0.123897
-0.567789
63.3506
0.508234
0.253133
49.7332
0.929854
0.733144
51.0211
1.22369
0.545486
54.5998
1.2695
0.303595
60.5442
1.04426
0.0938249
72.9631
0.728059
-0.10195
95.154
0.45528
-0.207389
117.849
0.256061
-0.225411
134.46
0.119542
-0.163737
146.4
0.0359676
-0.0998846
155.257
-0.00563432
-0.0222805
161.76
-0.015049
0.0225355
166.049
-0.00295292
0.058075
167.997
0.0185454
0.0418988
167.227
0.0523604
0.0174188
162.85
0.0883011
-0.056512
163.591
0.140845
-0.138931
167.631
0.206457
-0.291802
168.126
0.300968
-0.479947
165.789
0.435005
-0.722394
161.56
0.623249
-0.989086
155.489
0.856374
-1.22444
147.842
1.06016
-1.29655
138.547
1.13087
-1.09345
128.925
1.0219
-0.66636
119.56
0.716617
-0.0293076
110.917
0.29764
0.621911
100.902
-0.00903286
1.01166
87.506
-0.0817227
1.25538
71.766
0.000537087
1.05631
64.8998
0.0225253
0.461775
72.9454
0.0247172
0.104475
88.3386
0.131293
-0.189567
97.8898
0.229593
-0.0389842
80.8075
0.865952
60.8072
-0.275661
0.182826
61.1345
-0.380996
-0.474874
84.4162
-0.444906
-0.489898
94.9451
-0.515201
-0.548798
80.6915
-0.397645
-0.636809
65.1486
0.198499
-0.32211
55.4863
0.896669
0.0675243
54.7651
1.20838
0.280825
58.4264
1.21322
0.370315
64.6445
1.01775
0.39558
77.2617
0.773249
0.256682
97.7029
0.55333
0.0904237
118.634
0.381742
-0.0101058
134.903
0.258715
-0.0161714
147.164
0.17415
0.000418602
156.501
0.124813
0.0377928
163.457
0.100784
0.0555014
168.124
0.0962077
0.0703138
170.384
0.0982198
0.0470881
169.782
0.105009
0.0168092
165.59
0.106903
-0.0502806
166.109
0.111662
-0.133968
170.034
0.110931
-0.28023
170.182
0.121643
-0.476812
167.253
0.174003
-0.754462
162.076
0.328317
-1.11251
154.582
0.597571
-1.44886
144.944
0.842262
-1.49925
133.691
0.941089
-1.16893
123.701
0.899845
-0.617544
115.338
0.63049
0.240696
108.43
0.181681
1.06352
100.567
-0.113793
1.32264
89.2428
-0.0983416
1.27503
75.4751
0.0598474
0.934288
69.1694
0.0887429
0.456075
77.8838
0.0934356
0.118757
95.0811
0.140215
-0.215496
103.729
0.132053
-0.0369458
76.6579
0.97066
59.2624
-0.0737766
0.223692
52.4529
-0.246029
-0.295892
83.2957
-0.347054
-0.35248
100.863
-0.43588
-0.391788
85.7592
-0.509891
-0.498366
65.6734
-0.366691
-0.449193
58.3072
0.131512
-0.414181
61.2075
0.477179
-0.0237675
67.8722
0.543512
0.352305
72.8879
0.59953
0.408217
85.1381
0.574476
0.345606
101.565
0.475609
0.240342
118.431
0.34337
0.157851
133.289
0.225206
0.124374
145.598
0.126404
0.113039
155.22
0.0534736
0.119118
162.481
-0.00301455
0.11774
167.288
-0.0456361
0.117406
169.524
-0.0871341
0.093745
168.535
-0.131828
0.0648249
163.898
-0.186944
0.00616784
164.734
-0.23416
-0.081784
168.884
-0.265741
-0.23867
168.246
-0.244208
-0.482083
164.361
-0.117306
-0.854119
158.102
0.133478
-1.31097
149.185
0.347119
-1.58049
137.534
0.292728
-1.37142
125.813
-0.0217699
-0.795916
117.328
-0.416852
-0.178674
110.76
-0.657403
0.515799
105.15
-0.701822
1.13471
98.002
-0.590238
1.23761
88.0458
-0.326421
1.03699
77.3505
-0.122806
0.745045
72.5956
-0.189418
0.525257
86.7764
-0.299624
0.2498
105.912
-0.435261
-0.00116489
95.4979
-0.473179
0.0125103
55.7249
0.44302
52.9275
0.198665
0.0110221
43.8601
0.0139069
-0.074123
72.1829
-0.312435
0.0154978
103.597
-0.565554
-0.0467969
85.2012
-0.821416
-0.182271
62.4602
-0.848757
-0.404041
58.8829
-0.640128
-0.599447
62.9193
-0.273915
-0.368242
68.8977
0.139084
-0.0348453
75.0402
0.403306
0.170593
85.4607
0.501303
0.279559
97.5074
0.489885
0.2883
111.917
0.40864
0.273216
126.468
0.312831
0.245271
139.512
0.223742
0.219336
150.027
0.156601
0.197392
157.957
0.10797
0.174615
163.206
0.0767214
0.154968
165.644
0.0481615
0.128393
164.623
0.0194287
0.0996464
159.462
-0.0189746
0.0525362
160.073
-0.0753544
-0.0162054
165.098
-0.182727
-0.117292
165.047
-0.367354
-0.270599
161.14
-0.66741
-0.493446
153.587
-1.12044
-0.750558
141.226
-1.76233
-0.830317
126.812
-2.45801
-0.595813
116.302
-2.95706
-0.220038
109.641
-3.14768
0.0867205
103.615
-2.9025
0.321934
97.9731
-2.30448
0.558682
92.4111
-1.63809
0.580021
86.3413
-1.01062
0.409113
82.1736
-0.578806
0.31058
84.6751
-0.409173
0.354281
98.3504
-0.39314
0.256068
110.619
-0.512049
0.216914
99.5092
-0.641932
0.202559
55.0924
-0.251348
42.334
0.312037
-0.326081
41.53
0.0605356
0.228617
67.1055
-0.321995
0.450548
101.542
-0.630051
0.360027
80.4604
-0.902953
0.150897
59.3284
-0.753096
-0.51498
56.3377
-0.379594
-0.927306
58.0144
-0.0960353
-0.611071
64.8089
0.191039
-0.295154
73.858
0.374742
0.0135176
84.559
0.419152
0.272192
97.3305
0.387286
0.360521
112.721
0.301358
0.392523
127.605
0.205724
0.363678
140.541
0.110698
0.329059
150.842
0.0309957
0.28601
158.605
-0.0406795
0.252212
163.697
-0.106127
0.225543
165.9
-0.186094
0.215002
164.515
-0.302781
0.218441
159.626
-0.480217
0.226499
160.869
-0.739925
0.249177
165.073
-1.15703
0.326421
163.234
-1.81235
0.462871
155.842
-2.8312
0.673664
141.845
-4.31563
0.862032
125.597
-5.90659
0.836522
116.946
-6.88531
0.480595
113.184
-6.85174
-0.144449
109.202
-6.0533
-0.631731
104.703
-5.01305
-0.668864
100.462
-3.9261
-0.504525
96.9169
-2.84187
-0.497167
94.6616
-1.86023
-0.572131
94.7785
-1.0763
-0.471274
98.9873
-0.489482
-0.226153
107.621
-0.184947
-0.0351562
115.095
-0.156471
0.228565
108.82
-0.253115
0.354703
66.0681
-0.52803
44.1407
0.0989382
-0.473096
50.1685
-0.131474
0.475162
77.8767
-0.239151
0.592316
101.889
-0.363674
0.55463
84.7673
-0.443389
0.294284
63.0907
-0.1644
-0.756094
52.9705
0.303316
-1.35474
52.1571
0.594201
-0.854739
58.1861
0.69485
-0.332574
68.7771
0.678148
0.0993456
83.1919
0.591543
0.427374
99.4721
0.465656
0.546385
116.794
0.346159
0.556176
132.296
0.242694
0.497107
145.137
0.16034
0.432087
155.153
0.100375
0.360684
162.681
0.0582318
0.306151
167.693
0.0296591
0.264377
170.1
0.00465879
0.250471
169.371
-0.026827
0.260942
164.906
-0.0717066
0.281816
165.681
-0.128366
0.318766
170.182
-0.21762
0.435671
169.736
-0.354426
0.635751
165.712
-0.569662
0.961384
158.226
-0.937946
1.3492
146.378
-1.54839
1.57369
132.245
-2.24632
1.28432
119.991
-2.86701
0.558512
110.689
-3.24232
-0.191645
104
-3.16712
-0.676861
98.531
-2.66049
-0.953987
91.7734
-1.90304
-1.20505
84.9157
-1.15052
-1.28422
79.3077
-0.534028
-1.05225
79.6387
-0.211703
-0.527494
92.8581
-0.094978
-0.143239
108.277
-0.0930605
0.244729
109.604
-0.0376069
0.328352
74.6197
-0.595456
49.1606
-0.235123
-0.274704
61.6523
-0.270737
0.517024
83.2899
-0.22778
0.568568
97.9429
-0.276944
0.643795
83.2345
-0.204309
0.265261
64.6952
0.0809804
-1.03239
50.7341
0.404874
-1.65438
50.2285
0.735264
-1.14756
55.3772
0.807029
-0.340749
65.4249
0.652552
0.341867
82.2914
0.470204
0.689427
102.421
0.315249
0.756643
120.873
0.190878
0.715471
135.865
0.0909794
0.617564
147.83
0.0146388
0.521141
157.046
-0.0416548
0.424402
163.933
-0.0826948
0.353082
168.423
-0.113683
0.300755
170.438
-0.142161
0.285203
169.462
-0.179524
0.302183
165.324
-0.227301
0.331169
166.21
-0.264033
0.359844
170.309
-0.28143
0.461172
169.836
-0.244291
0.611699
166.369
-0.0963718
0.836706
160.787
0.180301
1.12003
152.803
0.459414
1.37206
142.372
0.474475
1.34536
131.312
0.0993819
0.989232
122.39
-0.564582
0.515218
114.887
-1.03999
-0.144513
105.498
-1.12586
-0.811219
95.1161
-0.95952
-1.30919
83.7715
-0.623934
-1.55174
71.7861
-0.278499
-1.34371
66.2508
-0.145074
-0.626609
78.6222
-0.11839
-0.158041
99.819
-0.031516
0.165497
107.394
0.085601
0.224249
76.6873
-0.538164
54.7506
-0.297015
-0.00551864
63.9827
-0.21931
0.436579
82.194
-0.114733
0.466018
92.3145
-0.0922138
0.628529
79.8323
0.126428
0.05883
64.7985
0.300405
-1.24588
51.0204
0.398872
-1.75776
49.2441
0.645296
-1.35968
54.0293
0.670249
-0.303385
65.3628
0.523106
0.573528
83.5675
0.355451
0.926574
104.227
0.211771
0.94374
122.305
0.103109
0.848235
136.5
0.0240717
0.709997
147.639
-0.0268253
0.579689
156.177
-0.0523063
0.455304
162.457
-0.0575141
0.363491
166.577
-0.0479879
0.2967
168.429
-0.0295329
0.272677
167.502
-0.0116504
0.289705
163.186
-0.000238702
0.325114
163.902
0.01499
0.350652
168.486
0.0289287
0.454672
168.653
0.0564844
0.593753
165.917
0.122355
0.784342
161.242
0.26187
1.00066
154.571
0.48506
1.17877
146.187
0.65455
1.20528
136.194
0.689658
0.969135
126.379
0.593394
0.61456
117
0.317291
0.134459
108.159
-0.0885439
-0.395697
98.0444
-0.331993
-1.00946
84.2411
-0.283458
-1.52695
67.3596
-0.111436
-1.47317
58.3096
0.042253
-0.748456
65.4172
0.0573984
-0.154468
83.664
0.0933725
0.132032
95.7737
0.188603
0.135627
80.0687
-0.354486
58.0009
-0.143482
0.123848
58.2613
0.00584356
0.281767
77.1132
0.164435
0.301638
86.2508
0.37489
0.399836
76.5167
0.645419
-0.272998
60.619
0.591859
-1.2669
53.2558
0.524116
-1.72828
49.0882
0.611844
-1.42538
52.708
0.514007
-0.144337
65.0243
0.315038
0.844245
84.7347
0.137033
1.15543
105.544
0.000452726
1.10356
122.569
-0.0966306
0.952665
135.816
-0.161958
0.776082
145.727
-0.194112
0.611196
153.3
-0.20162
0.461974
158.885
-0.186327
0.348846
162.511
-0.158202
0.270282
163.931
-0.117092
0.234081
162.642
-0.0743805
0.247164
158.212
-0.0362128
0.286529
159.002
0.019366
0.29543
163.875
0.090902
0.383559
164.355
0.1951
0.489736
162.009
0.341135
0.638831
157.992
0.533375
0.810061
152.34
0.753835
0.963649
145.41
0.915554
1.0511
137.062
0.906793
0.982236
128.037
0.724796
0.792016
118.465
0.407371
0.443467
108.637
0.0208686
-0.0112517
97.3584
-0.219546
-0.714092
81.0942
-0.29124
-1.38462
62.2244
-0.315898
-1.43078
54.624
-0.25994
-0.823099
60.4974
-0.197997
-0.216731
77.0692
-0.0972991
0.0412761
88.2046
0.0181297
0.0270626
74.8699
-0.297158
51.6486
0.0742838
0.0483271
51.1526
0.354411
0.00611553
69.3611
0.651517
0.0111484
78.049
1.03507
-0.0255914
72.6553
1.23171
-0.572779
62.0195
1.00829
-1.15119
54.4689
0.74965
-1.53757
49.0049
0.548424
-1.20995
51.5685
0.302193
0.160261
65.6827
0.0351638
1.17047
86.7975
-0.127078
1.33918
107.033
-0.225022
1.20556
121.924
-0.289997
1.01238
133.137
-0.315757
0.795402
141.915
-0.309837
0.600077
148.67
-0.275931
0.425672
153.64
-0.219925
0.29324
156.794
-0.149495
0.20253
157.858
-0.063646
0.151476
156.33
0.0232545
0.162108
151.448
0.0949663
0.216044
152.336
0.168812
0.224565
157.592
0.242126
0.311764
158.608
0.325798
0.405231
156.765
0.421981
0.539319
153.231
0.530487
0.694857
148.09
0.648142
0.836411
141.697
0.738773
0.946908
133.941
0.751187
0.952664
125.197
0.643427
0.876902
115.383
0.398502
0.666486
104.668
0.0719106
0.301378
91.8735
-0.207459
-0.397883
75.2881
-0.378864
-1.16545
57.0782
-0.558762
-1.26272
51.7567
-0.626048
-0.804048
57.7095
-0.55166
-0.308275
68.5159
-0.426671
-0.0480545
75.4852
-0.290283
-0.0479605
63.8969
-0.501561
40.0141
0.466768
-0.358003
42.8388
0.938897
-0.364701
55.5296
1.39317
-0.347345
63.9423
1.76365
-0.379993
63.7661
1.78706
-0.649965
59.052
1.42815
-0.88425
53.1672
0.961557
-1.1446
47.9437
0.514462
-0.758366
50.4351
0.00273232
0.736969
67.175
-0.303895
1.4954
90.5402
-0.419741
1.45265
106.807
-0.502813
1.27264
119.204
-0.531881
1.02426
128.874
-0.528059
0.775725
136.491
-0.486511
0.54765
142.387
-0.420916
0.353781
146.613
-0.330792
0.201865
149.15
-0.231208
0.104962
149.641
-0.108212
0.0317247
147.569
0.00912591
0.0454241
142.173
0.09671
0.127926
143.28
0.199911
0.122959
149.181
0.311968
0.19941
150.657
0.442964
0.27056
149.217
0.58607
0.38877
146.184
0.725033
0.543741
141.686
0.842887
0.702304
136.005
0.908831
0.860525
129.096
0.882115
0.955785
121.065
0.741624
0.990429
111.809
0.479378
0.901311
101.27
0.0543875
0.705911
88.8313
-0.327883
0.0217653
69.8974
-0.608267
-0.849797
52.9402
-0.894259
-0.996357
49.0423
-1.05823
-0.669496
54.0262
-1.04332
-0.298686
59.7452
-0.884549
-0.0990113
58.9132
-0.527602
-0.26881
44.2233
-0.948791
25.6027
0.665783
-0.921732
27.3856
1.32179
-0.884827
33.7922
1.89341
-0.756835
40.4393
2.20976
-0.57016
45.37
2.09588
-0.481549
47.4189
1.69679
-0.507081
46.4062
1.11783
-0.609043
44.3522
0.177259
0.22195
49.4728
-0.482982
1.41957
73.8728
-0.656724
1.66135
91.4842
-0.751253
1.52249
104.665
-0.778535
1.27155
114.954
-0.764266
0.983221
123.047
-0.710333
0.70128
129.459
-0.625176
0.449254
134.351
-0.516584
0.239997
137.77
-0.388938
0.0760032
139.595
-0.247915
-0.0278074
139.383
-0.075611
-0.127357
136.353
0.0864259
-0.105432
130.177
0.192043
0.0258486
132.337
0.289476
0.0328012
138.628
0.396978
0.0953952
140.883
0.519768
0.146183
139.952
0.652196
0.249258
137.404
0.779199
0.402126
133.446
0.885202
0.575034
128.407
0.946922
0.770001
122.27
0.945925
0.923172
115.068
0.847093
1.05013
106.629
0.657089
1.05245
96.8829
0.334073
0.991411
85.3547
-0.183008
0.537503
69.1677
-0.666106
-0.345202
49.6766
-1.03611
-0.630077
44.3766
-1.25614
-0.428585
45.6548
-1.2108
-0.253109
44.9789
-0.905666
-0.275608
38.2848
-0.343527