/*--------------------------------*- C++ -*----------------------------------*\
  =========                 |
  \\      /  F ield         | OpenFOAM: The Open Source CFD Toolbox
   \\    /   O peration     | Website:  https://openfoam.org
    \\  /    A nd           | Version:  11
     \\/     M anipulation  |
\*---------------------------------------------------------------------------*/
FoamFile
{
    format      ascii;
    class       volVectorField;
    location    "300";
    object      U;
}
// * * * * * * * * * * * * * * * * * * * * * * * * * * * * * * * * * * * * * //

dimensions      [0 1 -1 0 0 0 0];

internalField   nonuniform List<vector> 
128000
(
(2.10757 -13.2681 12069.6)
(-9.42539 154.324 14923)
(-58.5978 318.632 14889.3)
(-46.4739 441.573 15661.6)
(-112.441 615.59 16259.8)
(-141.402 702.798 16587.7)
(-194.288 765.948 16631.7)
(-232.14 736.691 16252)
(-235.976 651.099 15615.2)
(-200.829 539.052 14859.3)
(-189.276 392.712 14161)
(-184.05 48.4222 17852.3)
(-23.8401 -224.095 27189.5)
(111.395 -199.813 30391.5)
(145.506 -159.141 33440.6)
(137.122 -79.702 35842.9)
(101.87 34.829 37498.5)
(31.4525 124.689 37270.2)
(-79.4669 124.79 32904)
(-155.489 6.68681 26893.2)
(-58.1924 -165.8 24447.9)
(76.9786 -171.488 29738)
(174.243 -36.6987 37031.6)
(106.426 73.361 38874.3)
(0.719554 89.2463 36587.6)
(-79.6571 80.6253 33463.1)
(-110.667 -1.84075 29977.6)
(-22.7295 -172.986 22182.2)
(355.973 -245.664 14282.5)
(592.929 -256.549 14564.9)
(745.277 -301.189 15572.6)
(886.704 -321.148 16366.4)
(973.403 -296.885 17003.4)
(982.987 -248.288 17205.1)
(899.199 -180.348 16986.5)
(780.756 -147.508 16447.2)
(586.947 -70.5373 15715.4)
(423.189 -76.7378 14617.8)
(244.394 -26.6192 14525.3)
(75.2333 0.240394 13039.9)
(-11.2347 -127.336 14887.1)
(131.909 11.794 15719)
(59.238 228.922 16538.2)
(98.8021 309.26 17814.3)
(55.7975 557.286 18945)
(5.74542 641.788 19469.3)
(-80.6998 731.302 19687.6)
(-186.209 732.741 19249.9)
(-297.645 616.766 18074.6)
(-315.802 423.89 16823.6)
(-294.221 130.816 15616.3)
(-289.531 -236.775 20238.5)
(-151.417 -316.22 31651.9)
(36.1794 -247.879 37883)
(148.679 -161.774 41697.3)
(220.266 -98.4607 44380.7)
(229.073 -40.2014 46331.2)
(208.318 -28.2516 47200.3)
(146.989 -55.3824 45621.6)
(-19.3892 -130.359 37421.8)
(-115.158 -66.9822 35436.2)
(-101.243 152.051 44015.8)
(-67.2869 225.474 46921)
(-74.6466 218.105 46982.1)
(-94.5126 154.388 45225.9)
(-142 54.4168 42121.4)
(-193.463 -135.282 36525)
(-247.006 -311.955 24939.8)
(65.2302 -382.258 16046.3)
(436.938 -413.1 16894.7)
(688.938 -421.4 18494.3)
(887.26 -358.401 19795.2)
(974.709 -219.141 20698.4)
(950.966 -100.274 20845.8)
(838.918 0.723972 20467.2)
(724.232 56.2602 19685.6)
(458.299 119.676 18449.5)
(344.576 68.0126 16688)
(92.8201 154.298 15702.3)
(-28.8561 5.89936 14617.5)
(-58.1537 -289.818 14807.3)
(59.2871 -199.824 16514)
(87.1516 16.3811 17957.9)
(132.094 155.625 19385.7)
(162.084 333.906 20630.4)
(153.864 444.616 21507.3)
(128.504 559.267 21957.9)
(22.9238 571.743 21601.8)
(-149.05 483.168 19484.7)
(-282.199 244.197 17459.6)
(-343.487 -55.9928 16316.7)
(-423.396 -402.754 21331.1)
(-297.96 -389.427 32129.4)
(-33.6124 -284.271 39157.1)
(116.204 -210.302 42642.7)
(189.118 -125.284 44516.1)
(233.227 -37.3095 46983.1)
(220.29 -15.9167 50220.9)
(164.434 -5.26131 53348.1)
(99.5756 -24.754 54866.2)
(-20.8874 130.455 53589.4)
(-85.3738 215.448 53204.2)
(-94.9576 227.4 51573.5)
(-116.319 197.515 49478.1)
(-166.575 99.9472 47509.8)
(-244.066 -25.6907 44588.7)
(-318.676 -227.05 39146.5)
(-446.741 -447.134 27452.9)
(-200.797 -458.052 17270.4)
(209.955 -397.031 17520.6)
(493.609 -319.971 19563.9)
(718.155 -147.514 21639.6)
(786.46 34.2033 23107.7)
(741.763 130.598 23225.2)
(617.06 172.619 22700)
(481.682 174.908 21537.9)
(269.415 152.443 20088.2)
(111.009 90.2244 18319.9)
(-134.374 77.6218 16622.9)
(-236.282 -65.9103 14259.5)
(-43.8341 -409.277 15559.2)
(99.1576 -275.486 17732.4)
(135.397 -123.548 19359)
(203.913 18.0579 20886.3)
(245.03 184.998 22267.5)
(267.665 291.108 23308)
(251.392 389.246 23910.7)
(235.206 425.002 23957.9)
(22.9028 308.539 21597.6)
(-214.058 130.433 18009.6)
(-335.065 -211.014 16958)
(-497.725 -437.658 21565.7)
(-466.262 -385.554 28746.5)
(-235.66 -283.73 32871.2)
(41.8716 -157.653 35494.8)
(225.91 -92.6185 36301.3)
(261.894 -41.7994 37664.3)
(246.403 2.8953 40492.8)
(181.64 1.70356 43838)
(144.097 10.2815 44922.5)
(63.2639 152.122 41093.2)
(-30.5677 219.089 41488.3)
(-89.6639 225.886 40968.4)
(-164.269 207.986 40058.7)
(-231.459 134.166 39605.3)
(-310.444 -51.1774 38846.9)
(-411.409 -335.204 36276.6)
(-565.884 -549.079 28058.4)
(-426.104 -488.272 18557.9)
(-57.9999 -355.705 17593)
(297.769 -199.247 19838.8)
(490.153 78.3963 23477.6)
(593.681 252.609 25124.6)
(539.689 288.631 25151.8)
(432.193 308.375 24460.4)
(309.427 280.097 23267.6)
(119.452 246.248 21691.9)
(-42.5046 160.278 19892.2)
(-214.563 124.284 17958)
(-367.946 -30.7071 15296.6)
(-107.278 -580.892 16131.6)
(54.2905 -526.371 18832.1)
(162.52 -297.867 20539.3)
(244.625 -147.477 22212.5)
(328.896 18.5905 23763.4)
(371.265 143.72 25040.2)
(397.337 220.74 25866.2)
(367.448 283.709 25983.5)
(343.915 222.307 25294)
(-91.0383 55.2402 18327.6)
(-308.652 -199.732 17368.5)
(-475.747 -354.27 20854.2)
(-534.283 -255.777 25130.4)
(-454.653 -130.798 27226)
(-302.657 -70.9772 27072.6)
(-59.9724 -0.411429 26529.7)
(187.702 54.5575 30051.9)
(264.276 15.9691 31391.3)
(231.721 -15.9316 32499.5)
(230.13 48.2896 31218.8)
(198.903 214.637 28730.7)
(70.6816 217.038 29243.6)
(15.8416 193.177 29891.1)
(-27.7423 132.898 30677)
(-120.987 -83.5695 30065.3)
(-258.439 -324.378 31156.3)
(-352.818 -522.026 31195.6)
(-519.52 -612.159 26769.4)
(-504.193 -468.216 19581.1)
(-172.34 -273.658 17397.8)
(144.545 21.7042 19873.4)
(338.389 391.748 25854.4)
(391.938 427.55 26901.6)
(336.109 462.897 26961.7)
(248.134 432.795 26147.9)
(115.145 380.452 24766.1)
(-67.9631 292.003 23010)
(-234.02 175.151 21060.2)
(-479.277 89.3745 19030.5)
(-574.224 -110.83 15917)
(-133.315 -661.114 16420.8)
(8.44092 -598.686 19277.6)
(154.278 -400.292 21320.4)
(266.912 -249.61 23182.2)
(371.763 -104.172 24972.3)
(436.838 19.096 26596.5)
(486.833 97.5533 27824.2)
(482.085 137.422 28358.2)
(461.544 134.226 28027.6)
(349.93 25.0611 26609.4)
(-254.846 -152.963 17847.7)
(-459.787 -197.376 19819.2)
(-513.641 -52.0303 21989.9)
(-513.618 60.6483 23167)
(-448.638 161.788 23292.7)
(-380.148 180.088 23112.8)
(-231.289 136.946 22915)
(32.5905 72.4412 24942.9)
(190.018 4.91891 26667.8)
(268.303 94.1152 26756.7)
(320.237 180.096 26233.5)
(256.167 45.0669 24351.7)
(237.391 -112.532 23467.8)
(206.546 -288.024 23576.8)
(151.336 -414.667 25137.2)
(32.5818 -491.92 26217.6)
(-143.963 -564.377 26467.5)
(-331.591 -555.474 24242.3)
(-413.499 -433.848 19793.6)
(-212.795 -169.849 17232.7)
(21.8104 411.79 25694)
(177.518 535.458 28185.2)
(197.165 568.825 29090.8)
(170.778 568.202 28842)
(90.1931 507.781 27682.7)
(-33.6306 427.032 25952.9)
(-194.671 306.225 23929.4)
(-342.405 187.165 21801.3)
(-562.946 47.2307 19520.3)
(-683.154 -127.756 16297.2)
(-184.151 -720.324 16412.2)
(-79.4737 -685.721 19443.2)
(130.801 -519.809 21734.3)
(248.163 -350.431 23708.5)
(392.994 -181.944 25721.1)
(482.85 -60.4864 27755)
(551.306 17.2115 29523.4)
(572.308 61.4487 30684.6)
(548.387 58.9302 31027.8)
(487.966 10.9113 30342.5)
(302.848 -69.6685 28377.9)
(-326.442 -57.8039 21112.5)
(-458.404 35.184 21540.7)
(-517.547 161.187 21942.5)
(-498.462 184.594 22108.5)
(-438.856 175.522 22263.4)
(-374.187 90.9724 22591.6)
(-270.272 -35.1305 23979.6)
(41.5705 -74.0311 26419.2)
(240.11 66.1308 27547.5)
(300.9 41.7412 26468.9)
(227.11 -191.629 23227.8)
(290.614 -357.238 22319.1)
(354.119 -407.229 22166.7)
(333.837 -459.511 22450.7)
(226.612 -522.008 22812.1)
(80.2543 -538.005 22878.7)
(-140.978 -502.698 21933)
(-262.08 -343.855 19997.8)
(-160.818 329.326 26528.3)
(-16.8072 575.717 29786.2)
(57.6646 649.126 31340.8)
(79.7236 669.075 31532)
(54.9878 639.455 30635.3)
(-20.2031 555.534 28910.5)
(-136.22 448.454 26705.6)
(-288.578 301.208 24388.3)
(-457.785 153.757 22131.2)
(-676.966 -16.4676 19680.8)
(-789.076 -194.955 16427.7)
(-216.109 -681.974 15967.4)
(-182.243 -674.674 18874)
(18.2402 -512.646 21230.3)
(238.29 -374.352 23720.6)
(366.728 -241.836 25772.6)
(477.253 -101.75 28235.3)
(570.609 -28.7363 30639.2)
(621.371 15.5515 32508.8)
(625.559 17.55 33643.2)
(574.849 -16.3719 33847.5)
(488.852 -85.042 33076.8)
(290.075 -91.4026 31108.8)
(-165.07 -23.5827 26321.7)
(-323.732 13.8939 24221.9)
(-419.909 43.3604 23518.3)
(-431.329 -12.9177 23226.4)
(-402.541 -101.587 23368.6)
(-342.234 -183.461 24719.9)
(-161.414 -90.8441 27810)
(114.277 83.8679 29084.1)
(199.664 13.2019 28611.1)
(48.8555 -193.606 25631.8)
(59.529 -313.924 23737.9)
(133.969 -364.582 23313.1)
(172.713 -412.319 23171.1)
(172.862 -422.621 23200.8)
(50.9225 -351.135 23348.3)
(-62.6605 -245.446 23859.3)
(-189.275 279.204 28869.7)
(-161.15 574.825 32449.9)
(-71.0402 683.289 34061.4)
(-16.8758 730.213 34419.3)
(6.99891 715.01 33663.5)
(-13.3912 656.044 31955.5)
(-78.6389 543.789 29510.7)
(-183.167 410.102 26702)
(-318.516 240.877 24010.8)
(-464.973 97.3117 21364.6)
(-708.727 -103.224 19136.6)
(-825.81 -232.185 16230.2)
(-215.477 -598.439 15308.1)
(-285.892 -545.984 17621.5)
(-158.214 -419.736 18794.8)
(-3.53079 -250.898 20757.4)
(333.05 -174.098 24965.4)
(453.623 -96.9712 27850)
(542.377 -30.1672 30946.3)
(622.619 10.5914 33612.2)
(645.314 12.6201 35606.8)
(624.392 -26.7902 36727.1)
(561.822 -85.7758 36848.7)
(455.32 -165.467 35920)
(322.401 -168.759 33842.6)
(31.7569 -158.351 29571.1)
(-155.132 -176.58 26945.7)
(-300.019 -192.08 25372.5)
(-366.483 -244.688 25043.3)
(-357.479 -242.193 26397)
(-244.546 -34.2759 29304.3)
(-67.364 85.7221 30556.7)
(84.4917 6.32614 30735)
(-51.3742 -173.138 29520.2)
(-146.139 -245.272 27340.5)
(-133.631 -213.924 27050.3)
(-125.221 -180.016 27316.8)
(-154.22 -67.5669 28258.6)
(-191.916 51.2577 30069.7)
(-250.579 357.615 33778.7)
(-275.683 549.233 36058.2)
(-190.076 677.311 37295.1)
(-109.574 733.311 37548.3)
(-44.9983 741.828 36819.8)
(-13.0752 700.269 35124)
(-25.9146 615.722 32525.9)
(-78.4774 481.344 29214.7)
(-158.756 325.769 25652.8)
(-233.291 138.121 22239.6)
(-401.826 -9.41232 19441.3)
(-685.76 -168.077 18105.1)
(-819.185 -276.514 15809.2)
(-172.157 -486.126 14543.2)
(-285.97 -343.057 16331.8)
(-269.771 -164.301 16846.9)
(-221.3 -64.188 17373.7)
(-128.77 -6.56123 17381.9)
(329.839 6.69729 26427.8)
(477.396 17.5596 30236.5)
(570.918 41.344 33809.8)
(622.682 49.9318 36716.5)
(611.799 10.44 38837.2)
(572.571 -57.6464 40013.3)
(498.937 -127.946 40247.4)
(398.43 -205.715 39538.4)
(295.074 -249.961 37599.8)
(92.7712 -271.957 33843.5)
(-94.4865 -292.64 30960.5)
(-266.984 -298.123 29241.3)
(-313.03 -201.898 30650.1)
(-274.227 3.27323 33520.9)
(-166.925 40.0215 34164.6)
(-98.7827 6.07207 34298.7)
(-115.672 -116.087 34312.7)
(-224.176 -78.171 33625.2)
(-262.232 -18.29 33906.5)
(-296.267 93.884 34840.5)
(-306.897 213.21 36482.2)
(-320.017 382.691 38957.5)
(-314.651 492.625 40379.4)
(-247.499 599.616 41026.1)
(-167.3 677.53 40978)
(-83.5855 701.319 40118.9)
(-19.7616 690.048 38406.7)
(15.4613 627.351 35788.4)
(4.96497 520.598 32214.3)
(-25.098 347.46 27734.6)
(-59.1344 131.483 22845.1)
(-97.2348 -44.0062 18366.3)
(-268.678 -50.9713 17646.1)
(-607.543 -220.844 16991.9)
(-780.865 -298.019 15238.4)
(-184.323 -327.654 14031.6)
(-272.075 -28.6943 15433.7)
(-339.211 149.844 16277.3)
(-335.89 275.641 17029.8)
(-330.171 235.71 17385.1)
(-282.001 165.156 17946.1)
(280.622 81.5744 28123.2)
(478.003 105.128 33050.5)
(557.084 105.089 36840.4)
(569.981 75.8268 40010.1)
(534.902 7.56309 42148.9)
(475.915 -77.5764 43390.6)
(404.568 -148.602 43815.3)
(306.536 -223.222 43375.3)
(200.199 -277.108 41650.2)
(38.2103 -295.053 39340)
(-128.872 -285.9 37249.3)
(-236.561 -158.775 38049.9)
(-230.012 -35.8406 39427.9)
(-190.096 0.851783 38166.1)
(-151.892 8.9446 38267.5)
(-204.589 -36.7121 39367)
(-256.559 20.4891 40577.8)
(-304.29 103.157 41439.4)
(-326.244 203.815 42523.5)
(-322.507 326.572 44056.5)
(-302.71 413.893 44790.5)
(-246.796 515.078 44923.2)
(-191.195 588.187 44525.5)
(-106.699 636.452 43520.3)
(-33.4826 640.333 41802.3)
(30.7153 604.891 39252.8)
(66.1484 519.741 35760.8)
(49.1845 366.56 30992.2)
(57.2769 92.5905 24116.5)
(118.695 -129.346 19482.7)
(89.4957 -75.7954 18359.2)
(-58.1039 -103.667 16663.2)
(-470.945 -262.845 15840.7)
(-720.061 -311.364 14561.8)
(-149.346 80.355 20416)
(-256.711 315.023 22999.2)
(-405.75 446.761 23346.7)
(-490.729 444.271 22817)
(-477.155 330.65 21394.6)
(-463.221 171.385 19997)
(-322.415 40.4012 21468.1)
(284.809 99.272 31162.9)
(450.118 178.691 35945)
(495.687 143.579 40260.9)
(474.041 91.2288 43398.2)
(424.855 7.85 45499.8)
(358.27 -71.5431 46815.9)
(285.648 -138.923 47432.6)
(191.667 -195.263 47373.4)
(84.3161 -224.732 46402.9)
(-44.9076 -217.565 45326.6)
(-144.618 -125.238 45353.3)
(-167.183 -55.8865 45135.2)
(-177.841 -9.27454 42849.4)
(-153.725 11.8243 43172.4)
(-193.31 26.2724 44857.5)
(-223.455 96.1948 46599.8)
(-248.776 164.994 47549.1)
(-257.652 257.506 48412.6)
(-244.22 337.095 48831.5)
(-213.66 421.196 48680.1)
(-174.532 488.714 48067.4)
(-113.916 539.327 46948.4)
(-47.1034 564.606 45248.8)
(17.2259 545.246 42846.7)
(76.7726 484.389 39584.8)
(94.7226 372.121 35233.4)
(55.7884 107.587 28275.7)
(102.251 -227.117 22702.3)
(215.639 -214.085 22170.4)
(298.756 -171.586 20933.5)
(165.496 -190.291 17178.2)
(-238.378 -288.261 14735.6)
(-631.572 -290.296 13796.5)
(28.7806 253.15 27856.2)
(-94.6709 322.738 32838)
(-219.495 368.349 33599)
(-409.974 362.275 29290.4)
(-502.726 217.141 25184.9)
(-498.896 15.3415 21923.6)
(-444.885 -48.3916 21732.4)
(-140.39 35.1832 26725.2)
(323.956 180.882 33921.9)
(397.052 217.141 39586.4)
(403.634 158.49 43833.1)
(358.583 83.4036 46813.3)
(310.258 3.6367 48823.3)
(241.679 -66.0251 50141)
(174.552 -121.651 50884.1)
(87.3045 -153.2 50943.3)
(1.95077 -156.025 50710.9)
(-77.1629 -105.153 50521.8)
(-104.853 -63.2625 49701.5)
(-143.402 -20.7963 47212.3)
(-137.451 13.6675 47631.6)
(-177.872 46.3367 49514.3)
(-191.673 109.011 51112.8)
(-208.478 175.925 51884.3)
(-205.273 250.785 52259.2)
(-184.568 332.046 52036.7)
(-155.485 399.729 51394.7)
(-108.768 463.279 50282.6)
(-61.4049 495.769 48678.9)
(-1.72494 502.504 46472.3)
(48.1419 454.068 43576.3)
(101.578 373.447 39758.5)
(81.6514 189.724 34461.8)
(-6.52073 -168.016 26089.2)
(33.7566 -305.856 24927.1)
(205.631 -275.496 27262)
(355.342 -239.178 28581.5)
(360.254 -213.518 24327.6)
(86.9622 -252.98 16568.3)
(-470.068 -262.917 13110.1)
(143.73 224.409 30702)
(80.4754 260.22 38397.5)
(17.8379 279.738 39538.2)
(-165.683 268.424 33202.4)
(-421.093 114.714 27105)
(-489.837 -77.4523 23047.7)
(-505.202 -158.605 22075.3)
(-302.55 2.86972 24450.5)
(49.0054 172.896 29846.3)
(294.218 264.415 37716.3)
(306.062 232.477 43419.9)
(284.258 154.62 47430.9)
(241.013 76.3795 50146.6)
(192.018 9.25045 52015.7)
(136.226 -44.6323 53295.2)
(73.3096 -74.2875 53999.4)
(12.9863 -84.812 54230.2)
(-45.0131 -58.1569 54110.6)
(-67.8254 -31.9538 53301.4)
(-102.241 4.14931 51072.4)
(-101.764 40.9231 51437.8)
(-122.73 79.1199 53250.5)
(-124.341 138.371 54589.2)
(-124.169 192.991 55062.4)
(-113.925 259.898 54937.2)
(-95.7931 320.632 54335.2)
(-70.6884 378.632 53318.3)
(-45.394 421.853 51829.2)
(-14.2439 437.725 49849.5)
(12.8171 423.803 47293)
(47.637 351.171 44093.8)
(58.0152 247.506 39928.2)
(17.0439 -5.13705 33448.5)
(-110.99 -233.199 27066.5)
(-96.1539 -322.281 26582.2)
(92.6092 -276.299 30677.2)
(217.572 -221.456 35523.2)
(255.027 -211.667 35617.2)
(192.377 -210.471 27104.6)
(-187.439 -234.649 16111.7)
(162.183 172.549 33648.7)
(177.786 172.898 41930)
(145.169 208.38 42797.4)
(92.6744 160.347 35798.7)
(-260.4 73.5325 26807.6)
(-433.815 -159.112 23224.9)
(-486.154 -168.267 22257.9)
(-404.292 -19.9877 23743.8)
(-136.716 189.145 27303.8)
(101.701 285.37 34146.6)
(202.802 281.715 41774.7)
(192.61 206.716 47362.2)
(176.151 124.72 50878.3)
(137.37 56.2121 53270.4)
(105.926 -0.3781 54938.8)
(57.0462 -34.1409 56030.9)
(21.4935 -53.2405 56549.2)
(-23.6669 -43.6862 56551)
(-39.299 -30.3713 55822.7)
(-70.6142 -4.94784 53838)
(-73.2381 26.7284 54168.7)
(-92.535 61.5632 55888)
(-89.9057 112.825 56922.3)
(-86.9597 167.949 57038.5)
(-73.1823 233.594 56650.7)
(-53.4527 302.803 55790.7)
(-33.5375 365.747 54529.6)
(-14.7251 415.371 52781.6)
(-5.10349 429.477 50592.2)
(1.60435 397.929 47899.2)
(8.54315 309.158 44701.2)
(8.34789 155.727 40572.1)
(-29.2378 -73.7072 34530.7)
(-190.599 -259.638 28480.9)
(-181.704 -315.759 27667.4)
(-6.00243 -208.777 32213.3)
(114.46 -129.503 39526.2)
(125.66 -107.831 43931.6)
(50.0524 -106.609 38246.3)
(-88.9991 -152.66 25653.9)
(151.147 93.8029 35826.7)
(241.409 113.499 44522.3)
(211.102 127.995 44778.3)
(253.986 110.042 36702.3)
(-14.9943 7.3031 27386.4)
(-361.728 -145.676 23318.5)
(-431.329 -152.038 22506.7)
(-423.661 36.2645 23477.6)
(-284.396 204.99 25717.7)
(-83.5877 307.578 31354.4)
(44.7209 303.314 39565.4)
(83.7615 241.109 46428.9)
(87.5619 161.697 50927)
(71.1907 96.7367 53937.1)
(54.4018 43.122 56032.3)
(24.6899 12.6149 57389.7)
(4.573 -6.46506 58164.5)
(-23.504 -3.0178 58302.5)
(-29.1286 7.10618 57697.2)
(-43.72 29.3923 55958.4)
(-37.2119 58.1874 56220.4)
(-37.9074 90.3533 57833.3)
(-21.9178 136.329 58561.3)
(-3.47619 184.134 58445.8)
(20.1256 241.607 57798.8)
(40.366 299.006 56651)
(49.12 356.003 55069.6)
(35.4039 400.399 52986.2)
(-0.234865 406.712 50564.3)
(-45.0511 361.871 47848.7)
(-89.8413 242.784 44930.5)
(-121.932 67.8401 41195.2)
(-146.167 -138.189 36032.6)
(-251.987 -267.568 30133.7)
(-251.62 -285.606 28701.4)
(-101.205 -133.694 33496.8)
(12.3187 -58.4904 42302.2)
(34.8278 -21.2127 49133.9)
(-47.5318 -9.21916 43856.4)
(-199.903 -105.023 32909.8)
(108.146 -21.3032 37195.5)
(240.607 57.6187 46414)
(246.393 49.3628 47381.8)
(275.749 66.9456 38330.1)
(226.544 -16.9815 30915.8)
(-209.874 -92.0306 23227.9)
(-379.182 -56.0797 22894.5)
(-399.843 117.508 23620.1)
(-358.545 250.828 25335.5)
(-251.295 309.086 29632.9)
(-113.646 288.246 37594.9)
(-38.0882 229.459 45409.8)
(7.47702 157.551 50686.1)
(14.4815 98.4054 54154)
(22.0341 47.1857 56516.6)
(7.22945 15.3205 58107.2)
(3.41439 -9.26497 59021)
(-14.1875 -14.7729 59243.6)
(-12.7182 -15.2594 58662.7)
(-21.9305 -3.90462 56977.5)
(-13.6121 12.5836 57236.6)
(-12.7393 35.6988 58804.6)
(4.20707 74.0985 59288.8)
(21.8904 124.309 58928.4)
(46.1229 193.055 58035.2)
(66.8726 279.349 56600.8)
(73.8354 376.765 54686.1)
(48.4038 460.08 52219)
(-8.34206 476.924 49649.6)
(-83.2476 408.576 47177.6)
(-162.035 253.891 44979.3)
(-213.588 40.6843 42183.7)
(-214.269 -150.57 37841.9)
(-273.522 -276.545 32214.8)
(-261.417 -253.344 30325.3)
(-138.528 -80.3602 35598)
(-14.0577 -24.1477 45195.8)
(23.4931 55.4247 52709.5)
(-61.9019 40.9288 45981.6)
(-304.966 -96.6604 36730.2)
(30.1878 -85.3649 36260.5)
(221.719 46.207 47267.7)
(230.903 37.6746 50384.2)
(261.767 28.0483 40734)
(279.599 26.6336 31395.8)
(90.6113 -28.2894 25605.6)
(-261.996 47.9328 24299.1)
(-346.506 183.16 25006.8)
(-348.043 242.038 26776.7)
(-305.87 213.461 31067.8)
(-223.36 173.274 38235.4)
(-140.45 152.443 45300.7)
(-76.3575 119.86 50413.7)
(-51.7769 87.29 53980.7)
(-32.6408 52.7218 56504.5)
(-32.9194 31.5974 58247.6)
(-26.6108 14.7977 59289.1)
(-31.2797 12.6116 59619)
(-21.4576 15.6219 59101.2)
(-16.5378 29.3396 57492.6)
(3.89212 46.4018 57673.3)
(24.2171 71.3944 59189.7)
(62.1081 107.355 59549.8)
(108.583 152.832 58983.6)
(162.624 212.827 57758.7)
(207.042 290.193 55816.9)
(208.918 385.124 53173)
(141.141 454.561 49959.6)
(29.393 427.249 47213.4)
(-96.901 323.091 45089.4)
(-247.684 142.885 43545.9)
(-318.924 -102.072 41615)
(-289.599 -286.796 38178.6)
(-290.638 -337.256 33488.4)
(-255.503 -241.601 31928)
(-167.382 -74.8322 37519.7)
(-43.4107 -23.5021 47979.1)
(14.0104 89.8296 55037.5)
(-7.30859 54.8874 42920.8)
(-341.871 -209.431 35156.6)
(-76.2694 -68.8679 30755.6)
(147.388 58.9052 46153)
(182.066 23.9927 52999.8)
(208.435 21.5795 42903.5)
(263.045 24.7466 31385.3)
(239.133 -10.7878 26689.2)
(126.249 35.0588 26944.7)
(-144.005 78.3358 28837.7)
(-210.484 6.488 29975.1)
(-254.522 16.5864 33995.4)
(-211.194 51.1354 39479.8)
(-161.611 83.1666 44942.9)
(-99.6424 72.0572 49520.4)
(-71.8755 54.5882 53106.7)
(-43.003 23.9783 55736)
(-35.5605 5.08191 57590.4)
(-20.0208 -15.9868 58684.3)
(-17.3817 -24.4206 59010.7)
(-1.78032 -33.6654 58366.1)
(6.37177 -35.1239 56614.4)
(29.7517 -39.6537 56902.6)
(51.6137 -36.1624 58487.2)
(87.8343 -22.1298 58568.1)
(128.796 12.7693 57661.1)
(180.672 85.5997 56044.6)
(233.773 220.776 53581.7)
(270.616 382.774 50184.3)
(267.993 435.633 46752.5)
(249.257 316.271 44522)
(209.517 107.801 43040.8)
(82.9585 -195.801 41965.5)
(-115.971 -423.556 40289.4)
(-157.125 -471.875 37400.8)
(-170.377 -382.117 34056.4)
(-155.694 -231.809 33230.5)
(-89.0216 -113.085 41436.4)
(57.7298 -100.456 52956.8)
(138.996 -19.9653 50203.5)
(162.207 -155.471 30877.1)
(-143.395 -327.8 31022)
(-88.3292 0.217385 25577.1)
(-17.0067 116.507 39800.9)
(129.681 11.2988 54172.8)
(176.366 -30.1287 42441.6)
(273.451 -94.8806 29721.3)
(314.234 -131.756 26845.3)
(294.828 -78.6275 27596.6)
(159.205 -71.9733 29160.9)
(-43.3027 -66.9009 30745.9)
(-135.953 15.7268 33997.4)
(-174.381 36.4019 37773.3)
(-179.929 54.4917 42339.1)
(-149.571 45.0478 46850)
(-123.129 36.8189 50745.1)
(-91.8598 16.6224 53725.2)
(-75.6479 6.70705 55838.1)
(-56.0463 -6.02787 57102.7)
(-48.3695 -7.2745 57511.3)
(-32.4581 -9.23918 56864.9)
(-20.5114 -3.20314 54941.5)
(4.09344 2.98717 55152.6)
(35.4463 20.6446 57029.9)
(93.8918 44.981 57306.5)
(188.279 82.0938 56385.8)
(335.848 128.386 54310)
(517.862 151.784 50604.4)
(655.918 51.2912 46154.3)
(709.908 -224.21 43098.5)
(682.54 -547.282 41489.9)
(629.804 -773.061 40151.5)
(557.988 -880.478 38980.6)
(376.596 -841.419 37860.5)
(221.065 -707.79 36539.1)
(111.925 -512.488 36033.2)
(21.5648 -333.244 38598.3)
(-42.9964 -257.995 46762.2)
(0.646411 -195.942 55059)
(50.4583 -159.479 52066)
(168.273 -171.859 30393.3)
(196.954 -176.375 24665.8)
(-45.5365 122.003 24211)
(-101.601 77.8892 37010)
(-20.2986 -136.323 53104)
(59.439 -159.794 40085.3)
(212.095 -213.9 28231.3)
(338.535 -137.527 25693.8)
(299.97 41.5352 25455)
(179.16 70.8066 27438.4)
(61.5269 77.8744 30262.6)
(-96.1828 62.9424 33639.1)
(-145.43 35.2336 37707.1)
(-161.029 33.5112 42645.2)
(-140.233 7.03952 47271.4)
(-120.855 -4.62448 51118.9)
(-87.3947 -25.7149 54016.5)
(-66.7883 -33.0305 56067)
(-39.8599 -47.023 57274.3)
(-24.8282 -51.6465 57600.3)
(-2.821 -65.3222 56828.6)
(15.748 -78.0091 54997.7)
(53.3218 -107.28 55424.1)
(98.5895 -144.312 57021.4)
(167.999 -212.085 56682.5)
(275.31 -321.925 54551.3)
(444.658 -495.619 50191.2)
(722.754 -754.874 45016.1)
(1125.07 -1114.77 42552.6)
(1468.81 -1428.52 41946.4)
(1612.98 -1544.74 41332.1)
(1506.04 -1436.78 40574)
(1280.38 -1248.7 39971)
(1016.98 -1059.36 39707.8)
(774.582 -821.944 40060.3)
(567.147 -548.139 41561.7)
(358.233 -341.104 45125.6)
(167.703 -208.546 51174.2)
(36.208 -92.6125 57282.5)
(-20.5609 -87.927 56902.7)
(-46.7776 -155.012 36440.1)
(207.427 38.3046 25736.1)
(66.1178 192.311 29406.2)
(-96.8242 -118.295 43155.2)
(-97.092 -193.547 53537.8)
(-57.0197 -187.909 42408.3)
(49.4938 -177.915 30150.8)
(261.854 41.4488 24254.9)
(247.503 282.474 22969.4)
(40.3162 270.432 24725.6)
(-94.4246 218.797 28290.7)
(-153.953 168.424 33218.9)
(-214.753 78.4746 38668.3)
(-216.753 24.1273 44325)
(-192.911 -17.0129 49154.2)
(-160.264 -28.5635 52940.9)
(-125.14 -43.0924 55714)
(-100.634 -42.0277 57663.3)
(-77.0669 -48.1946 58828)
(-67.0626 -45.0479 59212.9)
(-57.2731 -53.4422 58657.1)
(-59.8005 -59.1401 56964.5)
(-55.2251 -78.5258 57231.9)
(-61.8176 -99.4022 58938.8)
(-78.1843 -150.447 59089.2)
(-113.966 -229.355 58141)
(-164.807 -357.801 56103.2)
(-203.36 -510.795 52596.4)
(-118.872 -639.192 48271.4)
(170.79 -676.995 44602.2)
(565.138 -571.608 42013.7)
(918.089 -491.962 40422.3)
(1004.02 -497.137 39336.4)
(912.432 -471.422 37741.2)
(768.905 -313.739 36080.7)
(591.233 -114.02 34924.9)
(397.751 7.86053 36464.5)
(183.527 63.1067 44349.7)
(84.3458 0.599262 54133.6)
(-53.2543 -71.0774 57583.2)
(-36.8121 -134.221 41357.8)
(122.668 184.374 28825.8)
(181.975 59.7505 36569.8)
(-63.0801 -202.809 46642.1)
(-94.3612 -201.268 51966.2)
(-102.16 -189.717 42011.2)
(16.0567 -153.213 31174.2)
(238.126 188.55 23406.3)
(335.469 397.557 22281.9)
(95.7032 361.317 23698.1)
(-120.811 273.688 27096.8)
(-236.285 111.615 33081.6)
(-257.789 -0.422648 40067.4)
(-239.816 -58.0142 46147.3)
(-196.73 -83.6759 50770.2)
(-155.826 -88.5999 54223.9)
(-112.602 -91.7215 56700.5)
(-82.4218 -83.9036 58416.7)
(-52.7844 -82.6859 59394)
(-37.566 -75.0151 59637.8)
(-22.3268 -79.529 58989.8)
(-20.401 -82.2545 57399.9)
(-8.23069 -97.7069 57706.8)
(-3.86126 -106.715 59284.3)
(-10.7867 -132.836 59428.1)
(-40.4742 -160.639 58672)
(-103.808 -199.092 57300.6)
(-223.599 -224.589 55180)
(-368.177 -235.675 52239.7)
(-425.642 -190.566 49079.8)
(-322.733 -173.576 46720.6)
(-105.575 -187.957 44924)
(237.825 -198.314 42389.1)
(434.102 -71.0673 39382.5)
(549.852 46.3978 35855.6)
(515.563 167.816 31864.7)
(380.946 189.713 30588.3)
(147.179 110.903 37880.1)
(69.8285 -21.6145 50365.9)
(-43.1965 -82.1868 56974.6)
(-76.2859 -97.6076 42947.9)
(102.761 233.317 32477.5)
(132.113 -52.436 38625.1)
(-59.3062 -187.167 46768.9)
(-109.024 -158.93 49706.2)
(-166.751 -172.737 40840.8)
(-29.8979 -76.2391 31616.9)
(210.362 345.386 23803.8)
(382.465 431.769 22084.3)
(172.606 404.653 23371.6)
(-104.118 224.74 27350.5)
(-253.868 41.786 33923.6)
(-293.074 -81.3791 41154.6)
(-261.155 -118.429 47112.6)
(-212.269 -137.097 51450.2)
(-165.204 -126.901 54610.5)
(-121.096 -122.166 56850.7)
(-92.1274 -102.955 58357.3)
(-68.1221 -94.8403 59208.3)
(-61.4748 -79.0323 59395.4)
(-58.5382 -78.9055 58759.1)
(-73.8539 -76.9681 57094.9)
(-82.7218 -89.4964 57345.5)
(-98.6292 -93.8494 59104.5)
(-125.083 -121.579 59475.1)
(-165.775 -153.208 58975)
(-216.59 -195.689 57923.1)
(-286.769 -226.148 56269.8)
(-355.862 -223.342 54078.5)
(-399.182 -148.992 51335.6)
(-329.44 -38.4568 48669.8)
(-231.238 71.4231 46169.2)
(-75.7592 156.872 43865.8)
(130.988 221.423 40996.6)
(344.377 234.314 36447.2)
(426.172 317.333 30248)
(375.025 320.559 27246.9)
(157.214 193.072 31928.7)
(27.2005 77.5339 42806.8)
(-31.5258 -13.4246 51569.1)
(-63.3474 7.28254 45564.3)
(47.8316 214.694 35025)
(24.0174 -61.6783 36015.4)
(-75.246 -113.84 44838.5)
(-160.811 -53.0992 47378.9)
(-220.032 -81.6124 39869.4)
(-130.528 155.266 30062)
(154.075 447.872 25242.1)
(346.293 484.585 22341.3)
(211.316 439.381 23129.7)
(-83.149 198.884 27586.6)
(-276.586 -63.1375 34847.9)
(-301.498 -171.802 42194.9)
(-259.151 -207.065 47781.5)
(-196.076 -201.794 51787.1)
(-140.449 -185.636 54512.1)
(-91.3112 -164.555 56418.4)
(-57.5495 -137.139 57689.7)
(-30.8732 -115.753 58375.3)
(-21.5975 -90.7595 58414.1)
(-16.0339 -79.0056 57645.8)
(-30.7564 -65.9451 55925.4)
(-38.8064 -66.8404 56204.5)
(-51.6461 -55.7166 58082.1)
(-79.7162 -62.4498 58564.6)
(-121.474 -67.5118 58194.7)
(-180.617 -78.8928 57365.3)
(-258.917 -85.7316 56065)
(-345.106 -84.8529 54394)
(-419.135 -59.2955 52260.9)
(-426.555 -22.7147 49904)
(-356.819 8.44033 47336.2)
(-216.482 46.0057 44639.5)
(-39.4321 67.1041 41270.6)
(200.7 148.988 35599.7)
(374.105 313.677 28375)
(394.534 314.294 25933.9)
(244.532 131.483 30021.8)
(74.5465 -29.5931 40165.6)
(6.8353 -106.196 48460.1)
(-28.0104 -49.9508 43539.7)
(47.0963 100.487 31956.9)
(-42.7911 -39.5486 32590.4)
(-123.841 2.04638 41464.1)
(-238.313 80.7284 43986.4)
(-308.418 129.741 38750.8)
(-259.301 389.02 31422.6)
(11.666 521.376 26342.1)
(222.647 543.351 22727.8)
(199.858 441.603 23045.1)
(-119.916 93.6408 28354.1)
(-282.951 -170.431 36286.4)
(-292.456 -284.556 43461.5)
(-237.951 -278.942 48250.6)
(-170.023 -267.149 51510.9)
(-115.128 -229.94 53842.7)
(-67.335 -199.5 55473.7)
(-39.4199 -157.975 56542.8)
(-19.6017 -128.313 57073)
(-20.9546 -94.9167 56990.4)
(-26.2592 -76.7833 56131)
(-55.5478 -57.6921 54229)
(-80.0826 -58.0388 54547)
(-100.285 -43.4463 56584)
(-133.272 -50.7683 57260.6)
(-171.612 -55.873 57061.8)
(-216.784 -67.6168 56391.5)
(-268.974 -76.6583 55256.6)
(-314.139 -77.724 53758.5)
(-353.462 -62.8003 51818.3)
(-350.507 -33.5198 49537.5)
(-315.589 -4.06375 46834.6)
(-215.791 20.692 43721.4)
(-59.8581 60.2158 39624.1)
(164.726 147.123 33656.2)
(342.935 270.443 26531)
(395.702 254.301 25071.6)
(331.697 54.4779 29261.6)
(208.045 -89.6221 36552.8)
(136.694 -136.27 42556.2)
(104.486 -91.4714 38229.5)
(131.046 30.1236 25545.4)
(-69.8181 69.5802 28357.9)
(-192.23 208.34 34395.9)
(-335.382 313.497 37227.4)
(-435.107 430.046 35032.9)
(-374.742 576.259 30756)
(-179.032 595.105 26372.7)
(57.9358 550.444 22763)
(65.7237 370.184 23042.5)
(-152.034 -6.20168 29618.1)
(-287.89 -341.173 38600.6)
(-263.941 -366.547 44198.6)
(-188.389 -362.399 48041.5)
(-121.252 -322.9 50747.5)
(-59.9956 -278.749 52676.6)
(-14.4635 -228.544 54020.4)
(14.9826 -177.287 54841.5)
(32.5071 -131.545 55165.1)
(30.6824 -86.934 54882)
(26.5346 -53.67 53819.4)
(-7.78087 -20.0585 51705.1)
(-34.6244 -14.5415 52107.4)
(-55.9801 6.23524 54406.6)
(-95.0463 12.5374 55253.8)
(-136.713 19.9939 55188.5)
(-194.644 22.7913 54680)
(-258.407 17.4723 53753.4)
(-322.484 9.28405 52488.2)
(-376.386 -4.24475 50833.1)
(-400.12 -15.9814 48787.6)
(-382.157 -35.0243 46258.4)
(-314.425 -52.9956 43155.6)
(-186.59 -64.9149 39124)
(72.7366 -18.6199 31949.8)
(317.078 163.766 25189.3)
(412.053 112.927 24356.2)
(389.691 -85.3557 28146.8)
(313.537 -256.033 32826.7)
(235.762 -328.184 34308.1)
(190.571 -270.022 27422)
(217.479 132.24 16969.8)
(106.447 222.408 18990.9)
(-178.902 349.117 21841.1)
(-416.336 485.966 24493.9)
(-566.912 580.869 25859.1)
(-546.665 627.855 25547.3)
(-378.947 559.641 23742.4)
(-176.747 504.984 21665.1)
(-60.1415 267.99 23219.4)
(-212.818 -325.733 33371.5)
(-274.477 -455.937 39924)
(-198.277 -466.461 44290.9)
(-132.157 -428.738 47335.6)
(-57.6562 -377.69 49468.3)
(-4.39131 -311.993 50976.8)
(38.1246 -250.849 51978.2)
(57.9672 -186.045 52528)
(68.064 -132.25 52609.2)
(53.8917 -82.0463 52075.8)
(40.6312 -38.1307 50651)
(-12.0161 1.14816 48216.6)
(-61.4718 0.485309 49014)