/*--------------------------------*- C++ -*----------------------------------*\
  =========                 |
  \\      /  F ield         | OpenFOAM: The Open Source CFD Toolbox
   \\    /   O peration     | Website:  https://openfoam.org
    \\  /    A nd           | Version:  11
     \\/     M anipulation  |
\*---------------------------------------------------------------------------*/
FoamFile
{
    format      ascii;
    class       volScalarField;
    location    "900";
    object      p;
}
// * * * * * * * * * * * * * * * * * * * * * * * * * * * * * * * * * * * * * //

dimensions      [0 2 -2 0 0 0 0];

internalField   nonuniform List<scalar> 
128000
(
-157995
-154936
-197454
-183403
-239376
-241808
-285886
-294233
-304909
-290432
-262198
-230034
-206429
-185599
-184648
-200316
-216722
-227071
-237848
-222873
-228083
-233384
-221352
-208788
-202318
-219369
-242307
-280823
-316996
-359892
-381911
-395168
-368687
-355817
-294909
-280333
-214533
-203621
-167367
-134661
-161042
-121213
-163288
-150871
-193699
-214825
-260095
-301485
-333579
-346225
-320878
-278459
-239349
-205171
-184709
-204046
-224033
-236656
-258516
-246133
-255167
-259565
-236064
-219676
-212339
-246816
-289937
-345983
-396535
-440454
-448059
-424038
-370191
-320086
-247817
-217385
-150133
-153362
-93567.9
-102262
-201394
-166695
-170919
-165944
-191794
-208151
-245690
-281402
-323248
-356376
-356025
-313722
-274611
-236704
-209084
-225838
-237147
-244448
-250899
-241723
-248560
-250882
-243067
-233176
-222989
-273146
-323107
-387350
-435916
-466508
-448070
-406557
-344794
-296212
-237479
-207569
-168240
-152499
-133328
-158496
-190151
-154704
-167205
-144228
-172562
-192116
-234655
-283343
-332077
-381263
-405767
-373742
-330208
-288705
-255094
-265711
-272381
-278321
-279403
-276350
-287129
-294943
-298755
-290635
-296017
-331850
-403781
-458639
-508149
-519619
-478743
-413735
-338554
-277404
-203781
-175188
-115425
-123002
-101576
-116777
-245859
-203463
-195261
-178541
-174450
-189807
-215591
-259717
-309556
-366206
-403537
-395624
-364222
-322196
-306858
-291700
-302040
-282304
-288508
-281436
-298991
-305437
-320644
-318258
-334775
-363789
-435093
-479918
-521480
-507082
-454380
-379303
-308296
-243861
-192386
-162058
-138243
-154346
-140818
-185481
-243791
-221794
-211836
-196620
-191259
-198348
-218578
-257082
-301014
-357001
-399937
-407937
-381712
-360186
-351284
-353289
-342407
-338127
-319784
-316597
-329185
-343113
-362057
-359478
-378546
-398018
-456061
-490742
-520118
-496593
-436967
-363883
-290634
-231947
-180564
-159306
-138199
-148633
-145298
-171064
-284558
-268334
-249751
-242418
-219591
-219570
-220999
-243620
-281894
-308649
-379499
-349758
-363334
-329140
-341565
-333080
-353059
-317710
-316054
-307702
-315560
-325676
-347531
-355162
-368766
-380587
-420852
-441165
-465004
-436242
-385925
-320194
-266214
-216594
-189549
-175638
-172281
-192973
-190505
-232916
-282532
-300676
-283318
-286134
-265421
-259482
-249706
-253601
-275931
-292994
-326572
-332593
-324177
-320298
-330526
-331971
-335702
-323471
-319099
-306580
-317567
-319070
-344089
-338934
-356739
-352018
-385223
-387889
-407787
-385401
-348433
-298884
-258580
-222814
-208447
-198150
-209252
-213642
-225048
-243913
-284781
-324092
-317448
-333811
-310689
-299169
-278494
-270026
-271019
-275651
-290409
-293622
-274197
-273119
-286478
-299818
-308066
-299225
-294219
-299818
-289945
-303253
-305364
-318598
-318643
-320951
-325994
-327429
-364655
-337089
-318896
-279929
-259099
-237012
-238355
-238748
-254623
-261644
-275212
-287867
-260099
-318865
-342029
-367119
-367419
-355924
-315909
-286486
-282763
-275504
-285664
-277770
-292722
-257328
-289557
-282059
-304893
-295584
-301150
-292109
-305946
-293295
-309008
-296931
-303226
-293462
-308803
-324495
-334171
-315220
-300682
-273181
-266126
-253467
-269281
-271624
-302145
-297292
-315802
-299518
-227926
-280238
-319397
-377650
-381503
-379068
-360826
-316836
-279100
-267582
-262725
-256559
-263715
-253590
-274020
-279286
-282773
-284043
-276775
-286086
-280054
-291996
-290510
-302805
-301192
-302379
-296510
-312936
-313507
-301079
-292951
-277925
-279477
-279140
-302170
-312083
-340131
-334977
-342324
-312858
-200236
-238588
-272119
-328626
-356221
-379764
-338882
-303652
-296092
-275515
-271177
-255460
-264239
-252824
-271629
-271394
-285853
-276869
-280641
-276938
-287500
-283252
-293650
-288822
-296185
-291110
-302695
-303638
-305911
-292409
-289004
-274476
-283319
-283814
-309069
-320238
-357326
-340655
-349899
-304313
-177689
-203085
-240331
-294120
-328365
-348036
-333186
-296001
-246396
-250687
-252064
-239119
-240485
-234142
-243394
-244803
-251769
-255038
-254457
-265616
-266358
-279887
-280768
-293554
-296586
-306637
-308510
-314716
-312492
-303835
-296675
-287985
-290056
-292932
-311988
-338235
-363539
-351356
-344947
-295619
-167232
-170934
-197044
-244921
-291874
-335565
-318315
-304779
-275338
-262545
-260960
-252253
-250264
-243516
-251314
-248736
-257967
-254539
-261569
-260006
-268587
-269610
-279898
-284931
-298163
-304008
-316363
-317131
-317856
-300143
-294852
-272525
-282578
-276071
-311626
-319763
-351065
-326644
-316789
-270425
-178336
-180642
-207568
-245668
-285763
-330326
-321991
-307334
-271937
-258522
-267454
-242671
-238075
-227146
-229886
-229870
-232821
-237390
-239236
-250960
-254603
-273474
-283709
-306788
-320268
-336235
-343429
-347873
-342281
-326719
-310029
-288136
-287647
-288738
-311668
-317232
-333433
-301777
-295793
-254076
-195728
-198821
-214708
-250389
-278845
-335799
-326234
-319539
-297651
-280478
-282702
-267787
-254212
-245298
-246183
-242820
-246974
-242928
-247204
-245936
-254017
-260520
-276428
-294551
-317399
-336623
-357671
-366277
-361880
-334681
-314577
-291112
-279551
-286572
-298019
-291207
-288817
-256806
-253223
-225901
-202740
-212907
-225137
-257068
-279645
-320282
-322487
-307636
-284231
-273066
-265722
-251912
-237542
-226603
-222146
-221337
-219262
-223241
-222432
-234516
-241864
-270569
-300580
-347258
-379645
-399212
-410812
-414715
-405524
-378144
-340492
-307139
-298148
-293667
-298901
-286604
-281306
-245787
-249761
-216699
-213832
-225125
-230301
-259254
-269408
-313820
-301537
-302649
-288645
-284969
-281830
-268591
-257169
-246007
-243557
-236866
-237008
-230375
-230568
-227580
-234927
-247326
-274251
-313692
-348985
-385603
-432628
-465146
-449399
-386447
-348529
-310699
-289780
-277841
-277489
-263112
-255236
-233760
-227805
-187876
-201745
-226423
-223810
-255600
-264516
-293712
-289476
-286569
-267595
-265492
-252301
-245784
-232251
-225587
-215108
-211277
-200981
-198963
-189780
-195848
-202494
-247372
-327259
-434489
-490857
-488035
-488984
-488016
-483103
-440274
-365145
-314459
-287499
-272045
-271123
-257928
-247898
-237813
-230250
-189330
-200306
-217420
-222939
-259157
-273722
-300347
-297042
-286202
-286582
-278151
-277741
-265483
-259560
-248346
-243850
-233687
-229618
-219433
-212332
-202401
-202410
-215703
-262642
-331126
-374106
-408068
-455808
-485418
-458915
-383169
-322362
-273248
-256794
-247080
-251011
-234886
-226561
-215395
-182412
-138533
-201782
-228312
-229611
-264819
-279848
-314787
-293446
-293214
-259129
-269674
-251086
-250431
-233379
-225697
-209889
-200984
-181643
-166653
-139520
-126709
-115807
-178532
-322004
-470277
-541917
-521418
-480519
-451397
-428387
-364922
-308927
-262064
-250998
-246737
-258097
-241755
-231201
-201194
-185164
-142357
-206066
-231825
-230373
-278856
-301344
-328383
-325033
-306485
-293181
-278692
-277475
-266012
-260955
-248787
-243501
-233802
-227640
-217643
-207420
-198853
-196582
-213128
-273636
-361207
-425005
-450898
-500199
-506310
-451286
-377400
-318424
-271316
-259894
-252139
-264632
-245164
-235502
-209325
-199637
-164725
-188885
-208611
-212642
-269945
-290142
-340739
-324216
-319940
-282546
-276284
-263393
-256019
-239659
-230711
-217912
-212872
-202115
-198172
-190615
-194799
-208243
-257056
-350727
-461644
-533575
-535410
-499924
-469333
-478034
-407323
-360651
-305012
-296012
-282188
-290513
-266253
-253584
-209418
-207868
-173454
-186899
-200902
-207133
-276177
-311214
-345525
-344523
-321867
-301105
-275097
-280197
-264251
-257533
-246411
-242966
-236531
-233484
-229192
-226435
-227662
-234071
-252354
-283443
-331541
-377241
-410661
-446027
-457436
-411972
-362389
-330667
-300305
-295679
-288369
-299064
-276157
-262894
-216464
-210749
-185371
-191783
-213192
-220672
-282377
-317215
-362465
-344126
-330752
-289598
-270406
-268319
-254154
-242301
-234826
-227548
-225576
-222537
-223511
-226094
-234095
-250242
-274867
-315117
-356897
-397739
-407903
-414666
-394022
-394924
-345660
-331867
-284668
-304596
-300486
-319565
-298987
-286878
-232350
-230637
-204180
-216326
-256224
-285123
-362498
-390302
-409942
-382498
-338511
-293913
-269710
-262331
-254572
-248240
-242341
-239990
-237714
-236987
-236218
-236059
-240110
-244736
-257015
-271969
-294392
-317356
-335887
-350594
-354097
-339485
-319628
-295029
-280900
-281314
-292328
-318337
-318380
-319545
-275044
-257671
-222346
-245143
-305259
-339284
-414478
-434156
-455950
-403645
-359080
-294894
-283944
-265714
-254970
-242547
-238006
-234819
-234954
-235843
-237276
-242105
-247273
-259531
-270127
-290757
-302930
-326147
-328233
-343515
-330265
-338196
-309787
-309645
-280897
-293493
-309961
-341723
-351880
-360866
-318418
-300260
-251192
-283988
-357298
-399001
-470277
-492303
-493357
-435432
-362159
-309907
-296601
-268036
-255627
-243926
-242463
-239910
-241263
-241730
-241600
-241146
-244991
-247721
-256562
-264156
-272952
-284353
-290130
-299970
-299293
-302293
-290987
-289984
-281106
-297296
-292794
-341253
-352748
-375859
-340893
-326789
-272609
-318645
-402192
-433602
-501605
-494131
-493399
-427322
-375647
-319016
-294638
-264717
-254380
-245453
-243296
-245278
-247062
-248556
-248979
-252317
-251940
-264583
-266302
-280526
-278111
-294623
-286785
-304204
-289094
-306758
-288263
-297900
-285150
-302212
-316725
-342222
-359728
-381670
-357689
-350614
-298122
-352262
-424623
-439653
-479958
-463605
-448125
-389734
-339894
-297077
-278724
-255980
-253390
-243940
-251441
-249870
-254869
-258322
-258354
-258616
-255828
-258968
-262350
-266959
-265830
-272561
-266340
-274247
-269291
-284275
-275016
-282175
-270841
-286535
-283706
-323488
-326682
-358615
-341385
-346282
-305948
-358282
-406154
-397387
-420644
-388150
-377528
-328624
-304322
-275598
-266959
-255694
-257011
-257505
-254833
-265606
-269690
-272082
-269309
-273137
-270165
-283855
-267585
-281587
-272214
-289574
-272312
-289917
-260454
-296505
-279156
-290226
-271155
-280797
-274488
-294660
-298959
-321692
-315727
-327712
-307169
-353210
-361971
-345619
-344687
-318686
-306050
-273061
-261886
-249723
-254278
-253455
-262825
-248628
-269007
-266299
-270756
-273012
-272235
-273810
-276504
-275489
-271111
-276364
-270419
-277041
-260040
-270294
-256778
-284158
-284050
-288967
-264691
-264001
-245857
-257598
-254148
-271805
-271341
-284282
-287933
-313797
-300726
-279637
-274045
-248356
-240698
-226401
-232976
-239641
-255700
-262881
-268502
-265523
-266968
-276350
-280283
-278964
-278134
-275018
-281099
-285947
-274776
-294011
-287280
-307535
-291062
-305969
-277778
-304579
-298400
-309714
-277590
-267339
-240474
-236855
-227202
-238135
-237386
-247092
-261736
-292457
-246131
-235541
-214643
-197218
-194137
-193827
-213106
-234325
-255781
-278021
-266857
-273189
-281214
-284384
-280535
-282701
-268567
-274088
-265340
-277965
-277081
-291389
-288977
-306125
-294725
-312179
-300303
-328096
-321535
-333995
-288963
-267973
-230357
-214342
-200847
-198053
-211376
-206184
-238848
-226505
-183191
-183565
-157694
-159412
-160853
-184338
-215666
-248883
-287484
-294944
-302748
-305157
-301758
-299187
-294867
-284429
-283081
-276517
-272768
-290082
-288569
-306899
-305940
-328430
-316714
-331737
-324183
-356327
-361826
-367833
-328309
-289515
-250318
-214419
-196689
-180805
-185925
-182207
-199869
-220266
-162067
-167001
-137597
-144342
-154257
-184390
-219206
-263861
-294745
-316380
-316740
-309181
-295748
-282195
-267916
-267873
-256424
-262030
-249994
-272576
-276376
-290551
-285532
-297930
-293221
-308400
-316652
-349767
-366953
-376163
-343328
-302406
-257774
-219761
-193307
-171758
-183054
-168445
-202005
-151311
-109696
-132030
-98060.6
-140145
-150191
-201790
-243145
-289785
-327998
-342425
-340450
-327979
-297430
-272178
-265076
-257512
-259342
-257812
-250897
-263980
-266244
-279267
-272585
-279579
-268607
-272828
-288265
-328184
-356739
-379702
-363513
-326695
-290092
-238076
-216389
-168327
-168255
-151718
-155511
-165731
-127020
-136674
-125692
-164107
-174148
-223099
-249055
-294749
-321030
-330117
-323435
-298538
-267304
-243046
-233030
-235837
-237575
-244085
-233285
-237306
-241113
-251316
-247399
-247425
-241635
-233767
-251937
-283814
-314581
-349143
-348943
-323218
-294244
-255322
-230862
-202795
-187547
-171687
-189942
-118339
-77473.5
-126768
-109676
-167710
-178069
-235727
-268611
-312091
-328782
-327588
-311045
-285367
-259590
-234317
-235975
-228241
-242084
-251960
-244132
-234751
-238435
-246702
-242892
-232535
-223517
-202986
-219980
-251537
-283932
-321315
-345784
-338277
-319541
-273741
-252209
-197751
-196504
-146925
-145547
-118958
-119569
-165778
-151514
-218023
-212684
-272462
-275079
-304896
-295797
-290035
-270552
-253164
-234512
-225632
-215027
-218446
-227340
-237403
-226567
-229168
-227195
-236845
-234589
-228310
-220845
-205485
-206017
-222928
-244344
-269400
-300186
-307078
-319459
-290555
-288239
-244668
-233857
-209628
-177372
-571463
-572151
-600657
-604043
-647805
-665829
-703961
-717044
-718250
-685101
-617263
-519602
-390632
-204169
-100282
-199332
-288187
-348287
-391375
-397455
-411262
-311052
-120211
24241.4
-32622.6
-270286
-471137
-616006
-717548
-793964
-834221
-848738
-827326
-804270
-751880
-724245
-672783
-655006
-627836
-607262
-572976
-551934
-577243
-579842
-616769
-646649
-691995
-733941
-763601
-765131
-714508
-618051
-477029
-240540
-100300
-221863
-301486
-324162
-334259
-342937
-363565
-301038
-199220
-60511.2
-12736.4
-298324
-558785
-720370
-823588
-886863
-902193
-881114
-832364
-781318
-718417
-681846
-630630
-621881
-585221
-588659
-598219
-576998
-580952
-584606
-610600
-636905
-678635
-721058
-764820
-793235
-772995
-685920
-547614
-293144
-217460
-329577
-366476
-356384
-297267
-240386
-246437
-257088
-250729
-211915
-103694
-301113
-610382
-781774
-876262
-917492
-907134
-867901
-810582
-759865
-705641
-671766
-636483
-619461
-605292
-620436
-600053
-577414
-582876
-572880
-595157
-618621
-660353
-708947
-758936
-807196
-814986
-748360
-619407
-379168
-421886
-482401
-464479
-410212
-350459
-332921
-383674
-437526
-485227
-488234
-395468
-358744
-686417
-845707
-926278
-943151
-911833
-854396
-790335
-736831
-679267
-650138
-608475
-607059
-594506
-606963
-639607
-613867
-606502
-594725
-592835
-606236
-631901
-672416
-718418
-770329
-794763
-756920
-656304
-477426
-571439
-568894
-525576
-462548
-432499
-425783
-463859
-512218
-601759
-642299
-612441
-479781
-729404
-863940
-924056
-920389
-867751
-805230
-749738
-703316
-666382
-644031
-627029
-634073
-627433
-656042
-649909
-637596
-628077
-612061
-600945
-600302
-613323
-642199
-676493
-719310
-757058
-735361
-661070
-587678
-679903
-644969
-594120
-549792
-500908
-491606
-526888
-576834
-646003
-701424
-724391
-628438
-758781
-864019
-898148
-874503
-814229
-758545
-714678
-685118
-660087
-651003
-641073
-648267
-647649
-665532
-679656
-677657
-663802
-648482
-619335
-603546
-595080
-605842
-625703
-635731
-673783
-657312
-626777
-641671
-724696
-682429
-639361
-565864
-519331
-499720
-535436
-587217
-650369
-709903
-768972
-733022
-748089
-814230
-831321
-778723
-728718
-695869
-684169
-676761
-676742
-678524
-681841
-695389
-693726
-715655
-679051
-707334
-697672
-685862
-650074
-618893
-591823
-585841
-592924
-589452
-589802
-578720
-562671
-650753
-712038
-684015
-632982
-567102
-504500
-474591
-515041
-572036
-642855
-697108
-762061
-774722
-713481
-733696
-708700
-668548
-657473
-664605
-683344
-696787
-710306
-716357
-728348
-731781
-733788
-736071
-666273
-723280
-729871
-728173
-684076
-636294
-585025
-564241
-558550
-547961
-527619
-489043
-444946
-546589
-600945
-597603
-566445
-509818
-445042
-421715
-447153
-497051
-550493
-608945
-660707
-690189
-608714
-569324
-570261
-577526
-622975
-664514
-708267
-733204
-754933
-765033
-778675
-779821
-777663
-766671
-617572
-702988
-744044
-760534
-731167
-671699
-583186
-535180
-525417
-518921
-510002
-473436
-441092
-392367
-476171
-479555
-480985
-434020
-376941
-352641
-398954
-442292
-478529
-485148
-499145
-489892
-437991
-459197
-512810
-572023
-642623
-697754
-747196
-769246
-792553
-798685
-819148
-809054
-803661
-767882
-540966
-633394
-698514
-751815
-735122
-704010
-603396
-517188
-471564
-468907
-465032
-445247
-411535
-359271
-346620
-347753
-354721
-315297
-261301
-278686
-328321
-376691
-386623
-388063
-379514
-365117
-381769
-454595
-534394
-610667
-684639
-738879
-780239
-792482
-813648
-816587
-826992
-812299
-801662
-754699
-441872
-529530
-598423
-664728
-684234
-680387
-609283
-497085
-431822
-417868
-421763
-421291
-408403
-348445
-293545
-229166
-213864
-175561
-175252
-237779
-304316
-325836
-327987
-321714
-338324
-374210
-439583
-513931
-593019
-658415
-720150
-757997
-783052
-777205
-800339
-765012
-774583
-768273
-769715
-715289
-308739
-377395
-449980
-525586
-569345
-588581
-570667
-513361
-375313
-342653
-344555
-359373
-379217
-355037
-307839
-229814
-157767
-122386
-168234
-254636
-296999
-313748
-315586
-342736
-384907
-443658
-506955
-577261
-642029
-695746
-739316
-762674
-760806
-752733
-707457
-700349
-702888
-712540
-715383
-661083
-157588
-160856
-233792
-381307
-529484
-647976
-684717
-651463
-525412
-356460
-299873
-292070
-336509
-354067
-345728
-302857
-246812
-209811
-248065
-299949
-329089
-337377
-354713
-386346
-436143
-489659
-552512
-610488
-665436
-700230
-727666
-721562
-696889
-650028
-637065
-612323
-611678
-604853
-622239
-577314
-222333
-231003
-318467
-446650
-543989
-637595
-687589
-668829
-556988
-416106
-285164
-205512
-249682
-301039
-326658
-318895
-298627
-281968
-299308
-337825
-352332
-362928
-379034
-419846
-466451
-522049
-578387
-634880
-679874
-704392
-708606
-680318
-617443
-646413
-640854
-542284
-458695
-420290
-487213
-474018
-286277
-289945
-345179
-436547
-507414
-581720
-629686
-632666
-555623
-441328
-308415
-168788
-166429
-247078
-307194
-326221
-329732
-323836
-333079
-344444
-349103
-346982
-362198
-394724
-443809
-502282
-570871
-634489
-678592
-685701
-670239
-620665
-553598
-639773
-676818
-587701
-382396
-197987
-256695
-341668
-310595
-295645
-336616
-389788
-451710
-535285
-572892
-570211
-510203
-423284
-300134
-143515
-89040.4
-167569
-251394
-295502
-307407
-310985
-310103
-317144
-310901
-311301
-324536
-368592
-428712
-496967
-571524
-642594
-685528
-676638
-629682
-542721
-514944
-612528
-671274
-608933
-389324
-115131
-76957.5
-205403
-314364
-263389
-286800
-334301
-410991
-491442
-517256
-515072
-466655
-393811
-280580
-131517
-66122
-135204
-230365
-283784
-304914
-300109
-286636
-266823
-243725
-213628
-203864
-247729
-337233
-439881
-556680
-659455
-692525
-650030
-570455
-488403
-472289
-554428
-612870
-548046
-290723
-59138.1
-1515.6
-29454.8
-300093
-220362
-221152
-302540
-393488
-457312
-472414
-457196
-401721
-332044
-231021
-141066
-126622
-180919
-238860
-277794
-276694
-257380
-219817
-189812
-134019
-86894.6
-100612
-233896
-386229
-476723
-569263
-649872
-687912
-645402
-538519
-461931
-454053
-516265
-568736
-414084
-89563.7
-38044.6
-39438.9
67211.6
-318368
-245513
-191394
-326363
-417892
-478297
-490993
-459717
-412544
-349059
-282542
-228013
-220158
-238828
-271544
-290938
-288714
-255206
-200376
-131613
-8664.48
136667
104732
-86845
-281297
-430367
-558490
-638562
-638929
-562149
-480622
-428202
-438200
-488507
-502611
-244539
69523.2
13632.3
-44370.1
57640.7
-292288
-296529
-198695
-416078
-474471
-538713
-542659
-520011
-426781
-385383
-312936
-264316
-235172
-243997
-265913
-276338
-244981
-179432
-76439
76335.9
331921
337259
13310.5
-292290
-468361
-533113
-559209
-573891
-563977
-503011
-443072
-415174
-453859
-520191
-526580
-306051
54936.4
147172
-20986.6
15945.1
-107111
-193625
-170978
-447682
-577539
-607797
-623190
-595126
-508324
-425581
-349263
-278940
-248129
-254570
-281506
-294267
-278959
-232222
-163225
-85044.1
78926.5
239990
159655
-86841.4
-305764
-448543
-580008
-630390
-596324
-518646
-444767
-418293
-479041
-580430
-665068
-516777
-141986
114290
17022.5
62099.8
95530.3
-15454.3
-126866
-454085
-630444
-699076
-688136
-669673
-559419
-455595
-347830
-266611
-237057
-258355
-285191
-295938
-282172
-253867
-212832
-178511
-109743
-32333.4
-48509.4
-210997
-406915
-533729
-590749
-591156
-631263
-561032
-473578
-437415
-528664
-656907
-747408
-658716
-301878
41675.1
29047.1
41095.7
91724
103956
-26732.2
-392231
-634345
-736195
-759081
-731873
-628213
-475031
-362467
-281952
-279090
-309592
-335966
-342930
-335950
-317051
-295314
-283463
-256613
-214166
-194925
-250251
-366259
-486794
-595209
-658077
-637782
-559516
-459488
-425078
-547366
-691403
-760314
-694372
-412089
-61322.2
-10071
-106308
-128344
-81943.3
-55689.7
-227937
-477951
-673824
-762676
-767664
-661608
-483900
-362682
-313700
-321684
-351458
-367998
-372303
-365316
-356802
-351848
-355932
-357141
-348702
-361972
-402020
-473505
-542864
-608585
-643251
-663967
-608196
-514607
-423599
-563715
-697764
-728072
-596237
-349628
-134690
-190566
-269299
-368144
-425659
-442965
-487076
-519754
-587070
-655674
-701717
-653716
-482402
-373045
-363210
-386266
-408191
-416957
-412566
-402683
-393096
-391084
-400931
-404777
-402977
-415346
-446856
-493531
-547457
-602279
-642898
-656978
-639116
-582096
-459015
-539158
-623206
-595011
-508319
-447887
-410307
-435327
-412200
-537535
-632710
-680140
-740771
-755356
-776222
-744498
-696924
-592170
-470602
-418504
-426501
-443537
-452875
-447684
-434365
-418275
-406397
-407701
-422849
-436459
-437338
-460057
-489238
-532435
-567201
-613312
-639811
-672416
-666733
-654739
-572536
-555366
-599951
-624281
-625502
-628498
-606271
-593769
-532091
-658656
-762058
-815687
-867036
-871566
-862273
-805986
-717204
-601936
-509292
-481384
-490097
-495341
-490394
-470564
-444093
-414985
-389155
-375190
-402183
-417782
-424086
-442621
-471710
-507211
-540319
-580567
-614352
-651294
-671241
-685868
-666810
-668468
-659020
-687212
-691506
-720087
-708471
-690274
-619004
-741977
-841003
-878964
-917668
-897771
-887593
-818839
-710575
-608817
-554777
-538586
-541043
-531153
-508804
-474901
-432219
-386514
-338515
-310168
-348804
-386806
-401589
-431036
-455582
-492016
-512014
-553840
-579171
-631622
-660382
-700370
-710105
-729162
-736449
-779382
-759695
-778041
-768110
-751900
-685217
-797637
-875153
-894067
-914507
-894103
-855650
-776886
-682713
-617641
-591853
-578783
-571893
-544289
-511868
-462645
-410099
-355372
-319476
-315108
-341447
-365218
-377810
-402277
-424351
-445717
-451424
-482953
-511304
-569208
-615438
-670306
-702452
-738076
-750930
-791305
-802181
-814704
-793287
-778568
-722602
-814111
-863514
-862520
-867927
-829896
-793474
-724138
-668259
-631176
-618655
-604574
-586661
-552843
-509660
-467014
-413884
-382454
-367237
-375340
-380276
-393121
-386929
-418657
-429768
-450562
-436011
-436377
-422777
-497710
-552909
-625839
-670982
-718708
-741835
-770786
-781440
-797418
-786667
-777557
-739872
-806576
-821397
-809870
-798436
-764495
-731025
-682363
-652516
-634237
-628523
-613114
-592790
-546450
-525353
-477096
-449870
-430203
-418521
-419276
-419278
-417226
-413226
-431617
-441972
-465064
-465886
-479300
-441373
-432068
-482627
-559454
-615089
-670021
-697054
-726497
-736146
-750257
-746701
-744512
-730480
-768855
-760996
-743129
-728322
-697349
-673828
-647894
-639655
-635803
-633689
-618212
-595245
-564959
-568379
-551564
-518481
-481591
-455532
-446041
-443935
-428838
-418620
-447918
-479412
-544502
-587914
-631977
-585941
-523855
-494613
-537658
-578321
-629269
-656291
-681280
-690778
-703482
-703695
-705086
-706689
-734212
-701797
-688180
-666432
-644474
-630720
-621566
-626359
-631487
-631669
-632229
-625702
-605413
-635490
-624733
-576645
-522223
-468259
-455824
-429414
-415915
-424737
-473775
-531483
-612458
-667163
-710437
-635203
-607228
-581308
-580939
-579771
-606616
-621102
-637454
-645602
-652180
-662899
-660253
-678340
-674405
-640001
-632657
-610440
-604010
-600082
-611980
-630295
-649714
-671900
-679396
-658914
-632874
-632284
-640337
-591863
-520226
-465373
-438015
-417847
-410224
-415734
-469296
-546919
-648715
-701091
-723692
-611619
-647318
-657051
-651699
-630470
-624538
-622750
-619168
-620528
-618233
-624660
-625035
-639668
-647948
-606060
-602480
-581815
-584028
-591387
-613793
-639800
-670045
-688959
-689033
-659290
-610114
-550705
-564308
-528358
-464182
-399144
-365224
-353622
-364726
-368415
-421279
-502468
-598924
-655605
-645041
-535579
-642610
-687524
-701121
-675637
-653153
-633856
-617652
-607006
-597453
-605090
-599591
-623357
-593291
-561549
-568902
-550322
-576748
-590489
-630415
-665170
-700656
-724003
-701407
-660247
-591277
-452839
-428334
-437832
-406070
-363228
-312650
-275367
-277728
-280136
-359445
-449592
-528361
-550283
-516352
-435516
-607645
-685458
-724176
-716672
-688675
-664378
-631658
-616112
-587572
-585870
-577840
-585510
-587423
-559634
-563391
-561085
-590133
-608121
-649739
-678263
-713078
-723534
-701468
-654288
-560691
-389096
-259156
-255823
-255994
-243513
-220269
-180110
-191501
-219243
-297407
-380889
-426366
-425988
-372046
-364321
-546458
-640623
-702804
-716240
-699071
-675887
-645964
-625001
-603570
-591527
-581655
-594643
-554591
-529551
-555947
-553461
-594767
-614264
-660958
-692139
-722055
-722462
-694978
-641767
-553003
-415864
-211043
-134706
-141652
-210923
-296865
-284400
-213966
-194376
-244921
-313166
-353726
-346239
-275599
-323325
-487704
-586851
-659967
-701327
-705019
-691366
-658147
-637366
-601158
-595530
-567297
-567816
-551790
-551412
-579551
-580048
-626051
-636360
-679721
-687858
-700930
-679429
-644545
-585036
-504679
-395934
-262386
-93461.1
6080.93
-77198.4
-241570
-340702
-347939
-298401
-302605
-331155
-341605
-331066
-254510
-297905
-421633
-512183
-583545
-639809
-665618
-680134
-663688
-656757
-627375
-616851
-600486
-583349
-561894
-562617
-589901
-589364
-626421
-636359
-664089
-666760
-657686
-617986
-550062
-465820
-380913
-271648
-222308
-279961
-307357
-334918
-355149
-339430
-350100
-301994
-217166
-155942
-174598
-298373
-417850
-530412
-626468
-707710
-757515
-783295
-774568
-763568
-723718
-707025
-665450
-655460
-632924
-615353
-561759
-540545
-564671
-564090
-595235
-617802
-654334
-686767
-706411
-699533
-645329
-557502
-463562
-318766
-233115
-290991
-314294
-326089
-338489
-337461
-356437
-316465
-266957
-211681
-190805
-357845
-511183
-634984
-735857
-807125
-832998
-822388
-784678
-744631
-693135
-667076
-625703
-623972
-591781
-598572
-585389
-563817
-566552
-566961
-587784
-607252
-640080
-672251
-703990
-721116
-694805
-614378
-530065
-371757
-319785
-357600
-359808
-361551
-332998
-295176
-295670
-292902
-284677
-291319
-262114
-390506
-576423
-695120
-788582
-840226
-840634
-811990
-765801
-725966
-682980
-659291
-633324
-623337
-613427
-632366
-582472
-560244
-564349
-552039
-570539
-589168
-624358
-664450
-703288
-739508
-741016
-680114
-606518
-442081
-454831
-455579
-439668
-413499
-383011
-374574
-410337
-436268
-458540
-468327
-458958
-455051
-676790
-771169
-850553
-877651
-856256
-807896
-753263
-708443
-660032
-639077
-605587
-610377
-602149
-617181
-615113
-590472
-582177
-569434
-566427
-577567
-599785
-634802
-672544
-715635
-733036
-701983
-646736
-511137
-550259
-517195
-493747
-453102
-434977
-427401
-454616
-482960
-538800
-561962
-587969
-535258
-729063
-805455
-863158
-867617
-826817
-772307
-722818
-681632
-650030
-633442
-622212
-634159
-630936
-660605
-617681
-607059
-596903
-582001
-572447
-572770
-585383
-612083
-643035
-680460
-713217
-697872
-651480
-581281
-622910
-580369
-550934
-521659
-481803
-473536
-500950
-536882
-584170
-614864
-655801
-623498
-747248
-814576
-847497
-836596
-788817
-740040
-697708
-668627
-645249
-638847
-632451
-642834
-644462
-662192
-638147
-639113
-624542
-612799
-588718
-577425
-571556
-582423
-602258
-614440
-653275
-640720
-613938
-596892
-636408
-599584
-579730
-525169
-494053
-479944
-505096
-540554
-588312
-626198
-675112
-670706
-715593
-767953
-791654
-760992
-723507
-691303
-674171
-662160
-659912
-661763
-666123
-680591
-680598
-700678
-629201
-660848
-649607
-643423
-616268
-594233
-572729
-567503
-573855
-574709
-582227
-581188
-554235
-587665
-613762
-592381
-563202
-520667
-481408
-462219
-492548
-530272
-581951
-614882
-656393
-676537
-662926
-701320
-696412
-677030
-667549
-664987
-671953
-677271
-686702
-691209
-702258
-705361
-709124
-709001
-609394
-669182
-671760
-676440
-644305
-612822
-572909
-553340
-542874
-532854
-521051
-503955
-455322
-508418
-529274
-524679
-506088
-469839
-431409
-422126
-440113
-473900
-511524
-553112
-584987
-614040
-578926
-580512
-597778
-604662
-634561
-658152
-687287
-703730
-721622
-729213
-740038
-739586
-740382
-726200
-558583
-644062
-677618
-698283
-684069
-644692
-578508
-536875
-518819
-505105
-495785
-471894
-451946
-400188
-456237
-442607
-443409
-412988
-382889
-370804
-404431
-433448
-464228
-471453
-485393
-488549
-466710
-507557
-549838
-590353
-638716
-675441
-712474
-728829
-749832
-752579
-769422
-757965
-755739
-715918
-487937
-575986
-630619
-687192
-680583
-668130
-597671
-530923
-480361
-463424
-448045
-429153
-408487
-376873
-373256
-364320
-362091
-335746
-302163
-314682
-342719
-379021
-395408
-410657
-418093
-419524
-435141
-494941
-550372
-604433
-658879
-699350
-733533
-744723
-764036
-769492
-776911
-758063
-746694
-692479
-412150
-490939
-548037
-616607
-645216
-654851
-602209
-517661
-463803
-433586
-415760
-399863
-387296
-346575
-322460
-280186
-273353
-244884
-240133
-273560
-315396
-335695
-350841
-358581