/*--------------------------------*- C++ -*----------------------------------*\
  =========                 |
  \\      /  F ield         | OpenFOAM: The Open Source CFD Toolbox
   \\    /   O peration     | Website:  https://openfoam.org
    \\  /    A nd           | Version:  11
     \\/     M anipulation  |
\*---------------------------------------------------------------------------*/
FoamFile
{
    format      ascii;
    class       surfaceScalarField;
    location    "900";
    object      phi;
}
// * * * * * * * * * * * * * * * * * * * * * * * * * * * * * * * * * * * * * //

dimensions      [0 3 -1 0 0 0 0];

internalField   nonuniform List<scalar> 
376000
(
-0.00299174
0.0016373
2.68466
0.0759273
-0.0828604
6.79082
0.14135
-0.0705799
10.1535
0.265111
-0.131067
13.9772
0.423503
-0.1662
17.9474
0.596351
-0.182495
21.7656
0.772065
-0.185664
25.4003
0.91984
-0.159191
28.637
1.0099
-0.102896
31.2982
1.00984
-0.0149129
33.1865
0.938184
0.0547884
34.5512
0.816506
0.102879
35.2721
0.637379
0.162513
35.4013
0.385497
0.272354
39.3407
0.184351
0.246196
53.8434
0.122127
0.0789731
64.9299
0.166241
-0.0387764
71.6414
0.241713
-0.0758619
73.7016
0.214483
0.0210977
69.231
-0.09044
0.294203
61.6959
-0.453906
0.34284
61.7779
-0.579627
0.124301
68.1389
-0.599877
0.0531908
68.7736
-0.646137
0.111668
61.1533
-0.796868
0.20437
47.8805
-0.999915
0.199398
40.395
-1.17123
0.148522
39.8155
-1.29755
0.104939
39.8753
-1.37185
0.0558399
39.1731
-1.38115
-0.00602893
37.8244
-1.311
-0.0830567
35.958
-1.16598
-0.15553
33.4332
-0.974483
-0.201387
30.3074
-0.764934
-0.218267
26.7282
-0.557123
-0.216832
22.8225
-0.374911
-0.189881
18.7382
-0.218218
-0.164139
14.6072
-0.128154
-0.0959474
10.5354
-0.0364436
-0.0958572
6.92991
-0.0389026
3.28127
-0.0814994
0.0793907
6.77097
-0.0874555
-0.083646
10.6589
-0.0252954
-0.140955
14.7961
0.0527316
-0.219825
19.3697
0.200113
-0.325145
24.1658
0.383411
-0.378789
28.6021
0.600964
-0.416624
32.8254
0.821781
-0.393742
36.5001
1.01264
-0.308328
39.4166
1.10098
-0.119832
41.3585
1.04386
0.092302
42.3256
0.86298
0.260583
42.3285
0.562746
0.4402
41.2633
0.24569
0.621053
46.339
0.0381121
0.506449
68.5071
-0.0831821
0.211604
81.3031
-0.133116
0.0143679
85.1997
-0.153917
-0.0483011
86.2571
-0.0990907
-0.0216211
81.9466
-0.0410361
0.242008
65.7637
0.00235738
0.296836
62.5754
0.0196568
0.115566
76.93
-0.0733349
0.155951
84.0371
-0.216187
0.290836
83.1268
-0.474481
0.542067
66.989
-0.842812
0.582888
48.1007
-1.17666
0.455017
46.3778
-1.37978
0.284061
47.4877
-1.46164
0.118833
47.3761
-1.41699
-0.065097
46.2641
-1.25944
-0.252415
44.3089
-1.03293
-0.393323
41.7094
-0.784346
-0.461833
38.4191
-0.538997
-0.475669
34.4949
-0.325012
-0.443483
30.0367
-0.147447
-0.379154
25.3126
-0.0407331
-0.282195
20.368
0.0418539
-0.188112
15.4627
0.069406
-0.131235
11.0611
0.0256163
6.94083
-0.0674874
0.141856
10.1123
-0.136976
-0.0222247
14.7666
-0.141702
-0.146498
19.6593
-0.098224
-0.275706
24.6365
-0.0280046
-0.408779
29.6962
0.0936461
-0.515115
34.6312
0.266354
-0.60437
39.2435
0.469286
-0.611994
43.0515
0.694447
-0.54925
45.7644
0.861462
-0.304246
47.0026
0.872878
0.0605981
47.3318
0.737728
0.371302
46.632
0.460342
0.696201
45.0525
0.141811
0.984482
53.0132
-0.074909
0.758736
78.122
-0.229794
0.367095
85.8488
-0.332008
0.115685
89.1515
-0.343901
-0.0345447
92.4473
-0.273621
-0.075816
95.7749
0.0108224
-0.0114299
92.6947
0.323652
0.0177449
85.5975
0.381197
0.0825817
93.7128
0.268255
0.285798
96.5285
0.0525571
0.521197
94.8461
-0.203462
0.862019
82.9588
-0.556335
0.983426
56.127
-0.90043
0.775263
49.8125
-1.08753
0.448015
51.3669
-1.14155
0.155886
51.7383
-1.057
-0.161322
50.9192
-0.869821
-0.450934
49.4687
-0.643608
-0.631523
47.6876
-0.427959
-0.690789
44.8556
-0.232697
-0.684845
41.0303
-0.0836811
-0.606982
36.2968
0.0123349
-0.489287
31.1626
0.0812299
-0.364276
25.7667
0.103785
-0.222266
20.5089
0.0571211
-0.0942185
15.3835
0.0763323
10.304
-0.128646
0.263399
13.9253
-0.218596
0.0570781
19.3412
-0.272081
-0.105347
24.622
-0.279492
-0.283134
29.9783
-0.228182
-0.475454
35.292
-0.150062
-0.609247
40.3648
-0.0232585
-0.746918
45.1543
0.135942
-0.786274
49.0517
0.331442
-0.759384
51.4364
0.54728
-0.536586
51.4742
0.616627
-0.0263892
50.4706
0.503714
0.462776
49.2148
0.276393
0.909407
47.8195
0.0100264
1.30323
60.1284
-0.207271
0.976152
80.6941
-0.341274
0.485849
79.1345
-0.384642
0.152464
76.7542
-0.355127
-0.0555406
76.4155
-0.244959
-0.163657
76.9255
0.0351841
-0.266665
74.4228
0.320696
-0.254771
67.615
0.392764
0.012226
73.2439
0.33919
0.331644
82.1705
0.19629
0.649903
88.77
0.0425031
1.02924
89.1193
-0.203698
1.30184
67.9054
-0.520629
1.08302
52.4097
-0.706433
0.616507
53.2191
-0.759679
0.199072
53.6088
-0.664425
-0.261649
52.8163
-0.475328
-0.647942
52.8755
-0.281118
-0.836232
52.6711
-0.109044
-0.876054
50.5967
0.0399561
-0.848972
47.0312
0.139258
-0.723098
42.1655
0.211468
-0.577943
36.8681
0.238715
-0.408268
31.3196
0.193821
-0.191911
25.6917
0.124275
-0.0374455
20.0505
0.190895
14.3727
-0.154987
0.410974
17.8242
-0.312122
0.20313
24.046
-0.392089
-0.0385415
29.5913
-0.455646
-0.234623
35.2053
-0.464335
-0.482888
40.7296
-0.425227
-0.664669
46.0172
-0.35199
-0.836247
50.8912
-0.237589
-0.915865
54.7769
-0.102811
-0.908168
56.9835
0.107504
-0.760156
56.363
0.304749
-0.238622
50.4439
0.289739
0.462735
49.9224
0.144471
1.05119
50.2695
-0.0111955
1.50038
66.3048
-0.215372
1.16569
79.9123
-0.420569
0.673934
72.0981
-0.492357
0.22295
67.3408
-0.400754
-0.139997
65.2187
-0.241745
-0.312381
65.5004
-0.0595272
-0.440928
64.9056
0.113972
-0.421789
62.3337
0.273099
-0.143912
62.5266
0.350095
0.235721
69.9639
0.293777
0.678352
79.7201
0.22095
1.08413
87.3605
0.107531
1.46834
78.9878
-0.106574
1.30142
57.3844
-0.261189
0.759897
53.806
-0.254681
0.187638
52.9696
-0.126242
-0.396805
51.8405
0.0248995
-0.804488
55.7545
0.156573
-0.978093
57.4255
0.271285
-1.0044
56.0909
0.351249
-0.945364
52.747
0.399992
-0.789851
47.9922
0.415002
-0.611224
42.5255
0.364947
-0.376078
36.7256
0.301465
-0.144137
30.803
0.170835
0.0791534
25.0131
0.351253
18.5658
-0.167878
0.569647
21.5534
-0.356798
0.379595
28.3522
-0.491062
0.0814396
34.3659
-0.580731
-0.160479
40.1196
-0.63351
-0.446088
45.8251
-0.64031
-0.673572
51.387
-0.611177
-0.880291
56.58
-0.546687
-0.993815
60.7289
-0.457082
-1.00936
62.8984
-0.333504
-0.892609
61.9198
-0.0796261
-0.504594
56.8519
0.0689987
0.307662
50.3146
0.0523059
1.07559
53.3118
0.0784657
1.49519
70.9393
0.0240815
1.19763
79.5708
-0.067532
0.758388
72.5828
-0.204663
0.358976
65.6841
-0.318718
-0.0237527
64.517
-0.283602
-0.341167
66.4018
-0.219291
-0.498434
66.9744
-0.175311
-0.462386
64.5059
-0.0669717
-0.251473
64.0204
0.0796499
0.0832249
67.4481
0.161895
0.576442
76.7885
0.220336
1.00378
85.7406
0.267614
1.44477
85.1445
0.225288
1.35439
64.772
0.169786
0.808157
56.5956
0.24408
0.112247
53.2547
0.366067
-0.52058
55.484
0.448517
-0.890144
60.1581
0.518859
-1.05636
62.5733
0.570636
-1.06913
61.8828
0.597088
-0.988575
58.6631
0.595287
-0.807335
53.7237
0.557892
-0.593687
47.9419
0.482776
-0.320787
41.8536
0.37238
-0.0518734
35.6777
0.197252
0.237773
29.4875
0.5352
22.5055
-0.162321
0.722605
25.0579
-0.382705
0.587462
32.4276
-0.566021
0.250519
38.7942
-0.70362
-0.0376288
44.6556
-0.790663
-0.374185
50.3759
-0.832285
-0.646178
56.2234
-0.837178
-0.888779
61.9889
-0.812683
-1.03033
66.9332
-0.749132
-1.08215
69.9965
-0.665207
-0.981973
69.7266
-0.442774
-0.724694
64.8254
-0.14089
-0.00206576
51.6397
0.0202276
0.927007
56.9514
0.174763
1.33262
72.9533
0.285085
1.05466
77.8834
0.318035
0.70469
73.4266
0.300074
0.368283
68.6261
0.0488855
0.222399
65.4504
-0.250914
-0.0384556
68.3179
-0.357758
-0.385922
70.3095
-0.432254
-0.389152
67.7758
-0.449613
-0.241473
67.7343
-0.314939
-0.0606156
71.176
-0.107265
0.352652
76.6304
0.093662
0.773134
83.8898
0.300911
1.22867
87.2191
0.430065
1.23126
71.194
0.527718
0.699699
61.2934
0.661006
-0.0310791
56.4952
0.764794
-0.623554
61.7984
0.822127
-0.948031
67.2789
0.850498
-1.09169
69.684
0.853146
-1.08483
68.6521
0.832643
-0.985895
64.8876
0.786586
-0.781508
59.3519
0.715822
-0.544016
53.0472
0.599283
-0.224987
46.6977
0.438353
0.0901037
40.4553
0.217318
0.441228
33.8639
0.738913
26.3092
-0.12646
0.838102
28.1035
-0.341008
0.789174
35.8855
-0.552861
0.4483
42.3098
-0.717577
0.113591
48.162
-0.845244
-0.259826
53.7824
-0.925258
-0.577596
59.8416
-0.963791
-0.860393
66.413
-0.970538
-1.0334
72.6483
-0.949245
-1.11184
77.4276
-0.886045
-1.05064
79.3564
-0.742759
-0.867504
77.47
-0.356056
-0.384504
70.9713
0.0803589
0.499306
60.2505
0.339388
1.04709
72.0251
0.510917
0.845722
74.8058
0.58286
0.60547
72.5968
0.548
0.386788
69.6754
0.413155
0.349648
67.4446
0.0595202
0.322436
68.5153
-0.260278
-0.0548684
74.7232
-0.418225
-0.227345
72.0813
-0.578753
-0.090337
69.1818
-0.604578
-0.0502147
71.5644
-0.434904
0.158652
75.6016
-0.157001
0.461693
80.668
0.18006
0.852009
84.7845
0.46012
0.949167
74.7644
0.707938
0.434032
65.0094
0.934204
-0.256463
66.6835
1.04484
-0.727417
73.1417
1.07633
-0.978232
77.6108
1.06061
-1.08318
78.5659
1.0187
-1.05721
76.1405
0.956367
-0.942919
71.0716
0.877099
-0.723929
64.4077
0.771117
-0.460737
57.2972
0.629078
-0.104901
50.6616
0.450569
0.24763
44.1726
0.218039
0.654831
37.5418
0.941493
29.7532
-0.0583176
0.88401
30.4812
-0.225075
0.942128
38.4916
-0.455575
0.664138
44.5914
-0.66751
0.312873
49.9759
-0.814163
-0.124456
55.324
-0.912325
-0.487502
61.2476
-0.985772
-0.792292
68.7674
-1.0252
-0.999958
76.6341
-1.03469
-1.10898
83.6568
-1.00258
-1.08792
88.1223
-0.919134
-0.950809
88.9223
-0.636321
-0.656975
84.9474
-0.0152216
-0.0978892
73.4232
0.49052
0.517919
71.068
0.668812
0.639604
72.3654
0.726208
0.527219
71.6425
0.625956
0.474139
70.2372
0.460862
0.509632
69.0086
0.324492
0.469587
70.945
0.0784033
0.209919
77.4455
-0.131442
-0.00795138
80.0181
-0.301096
0.0858713
74.2086
-0.490765
0.135236
72.5124
-0.499668
0.154366
73.9863
-0.336512
0.27142
76.4967
0.00863581
0.46522
79.2886
0.465807
0.481471
75.379
0.895615
0.0116381
71.6082
1.14977
-0.492265
80.714
1.23197
-0.799411
86.8204
1.22699
-0.973552
89.088
1.1729
-1.03942
87.717
1.09822
-0.999715
83.2384
1.00748
-0.873931
76.327
0.902348
-0.642144
68.1134
0.785199
-0.367596
60.0118
0.629382
0.0275793
53.3179
0.431582
0.42316
46.8756
0.201944
0.86481
40.5145
1.12761
32.7752
0.0284036
0.841229
32.182
-0.0140238
0.968607
39.9867
-0.144463
0.777922
45.4406
-0.343232
0.496018
49.1789
-0.589756
0.111671
53.7809
-0.756252
-0.324513
59.2791
-0.859345
-0.686765
67.8099
-0.941076
-0.917923
77.6036
-0.994525
-1.05774
87.4417
-1.0043
-1.08216
94.9579
-0.966048
-0.991737
99.2848
-0.841521
-0.780834
99.3159
-0.457772
-0.47401
94.8502
0.130532
-0.0457806
83.1127
0.465301
0.302847
75.1346
0.528941
0.459112
73.6867
0.465145
0.535887
72.2393
0.355858
0.623812
71.5174
0.338292
0.511
75.5003
0.313111
0.262954
83.785
0.197442
0.126095
90.3507
0.103058
0.186731
86.8225
-0.000107942
0.245322
81.0169
-0.0634089
0.22453
80.5253
0.0135584
0.201127
80.9445
0.320571
0.161562
81.8337
0.819601
0.010227
84.2847
1.17957
-0.323485
93.724
1.3072
-0.605479
99.0542
1.3127
-0.802011
101.063
1.25105
-0.91901
99.8869
1.15718
-0.961182
95.733
1.05151
-0.915098
88.8726
0.92954
-0.776364
79.6906
0.806256
-0.543738
69.3831
0.674834
-0.261738
60.0136
0.519047
0.157844
52.8783
0.35222
0.565567
47.4713
0.16256
1.03414
42.4454
1.27296
35.2465
0.0844843
0.740308
33.3212
0.183271
0.850823
40.6372
0.210985
0.730215
45.3753
0.185302
0.504099
48.1369
0.0062986
0.278837
48.3865
-0.266521
-0.0652336
51.7028
-0.520079
-0.422762
62.397
-0.722819
-0.705366
74.3187
-0.838922
-0.937106
87.5875
-0.893813
-1.02776
98.4424
-0.903376
-0.984455
106.66
-0.864544
-0.821177
110.772
-0.7472
-0.586862
109.873
-0.462736
-0.31828
103.93
-0.100469
-0.0331009
90.8925
0.121344
0.261016
82.1637
0.182143
0.489777
77.2606
0.247248
0.585135
77.7966
0.357785
0.442303
85.6026
0.405052
0.251889
94.6662
0.396072
0.156223
99.5818
0.398315
0.199404
98.9429
0.457076
0.203307
96.0335
0.553235
0.151165
96.1412
0.713054
0.0680983
97.8219
0.968492
-0.0594837
103.071
1.21635
-0.212179
109.384
1.33107
-0.423117
113.073
1.33264
-0.602676
114.072
1.27072
-0.745501
112.495
1.16596
-0.82772
108.35
1.04231
-0.857656
101.677
0.907645
-0.804543
92.3866
0.741021
-0.634779
80.3979
0.563493
-0.392044
67.1157
0.431404
-0.158267
55.8493
0.346491
0.214927
49.0436
0.248616
0.639564
46.3684
0.117436
1.14517
43.5492
1.37245
37.1922
0.125412
0.597376
33.7283
0.340824
0.613256
40.1697
0.51068
0.537015
44.1879
0.647961
0.346703
46.6366
0.715765
0.196769
47.9392
0.600897
0.043474
49.1273
0.285993
-0.1145
51.1689
-0.149879
-0.25422
64.9717
-0.5163
-0.553581
83.2983
-0.678646
-0.858488
97.7977
-0.730727
-0.929234
109.985
-0.737429
-0.816306
118.999
-0.704106
-0.619695
123.166
-0.619572
-0.394292
122.981
-0.459397
-0.169902
117.68
-0.231185
0.0755313
104.75
-0.0205584
0.327462
94.8992
0.184161
0.435992
95.2475
0.349006
0.330279
105.192
0.415981
0.217355
110.861
0.446165
0.146616
113.456
0.520104
0.144456
113.894
0.63961
0.108318
114.985
0.790154
0.0277003
117.66
0.957325
-0.0727583
122.506
1.10316
-0.187674
126.54
1.20476
-0.304008
128.115
1.23744
-0.453949
127.697
1.20281
-0.573416
125.255
1.11512
-0.670195
120.825
0.98458
-0.715278
114.336
0.836779
-0.733281
105.506
0.637987
-0.631529
93.652
0.353556
-0.373848
77.327
0.149191
-0.225702
59.4274
0.123732
-0.152071
49.0419
0.158977
0.163559
45.342
0.14168
0.636094
45.2313
0.0705269
1.19691
44.2612
1.42364
38.6394
0.22175
0.370837
34.7093
0.53802
0.289511
39.928
0.843361
0.228222
43.9896
1.10004
0.0964488
47.6912
1.2701
0.0427243
51.5649
1.29873
0.0362313
55.9374
1.14583
0.0555614
60.0676
0.726283
0.169929
62.8592
0.0969836
0.103233
70.683
-0.348205
-0.395285
92.5595
-0.488116
-0.778066
108.324
-0.533061
-0.768547
122.374
-0.541919
-0.612587
130.724
-0.518842
-0.417026
134.922
-0.45464
-0.225824
135.456
-0.323591
-0.0330653
131.202
-0.104169
0.15021
123.552
0.131691
0.251354
122.35
0.295288
0.202502
127.504
0.388838
0.143189
127.401
0.476525
0.0741215
128.317
0.595229
0.0441553
130.37
0.74024
-0.0161943
133.739
0.883115
-0.0969582
138.185
1.00027
-0.177626
140.839
1.09226
-0.272812
141.488
1.15114
-0.361802
140.241
1.15085
-0.457653
137.357
1.08686
-0.518791
132.803
0.965173
-0.56313
126.571
0.79457
-0.564214
118.456
0.592812
-0.555328
107.858
0.22733
-0.290894
92.7591
-0.143487
-0.0381765
66.3737
-0.246566
-0.132151
57.8212
-0.199714
-0.205378
53.5693
-0.081485
0.0429865
46.1793
0.00393663
0.533381
44.5655
0.0200053
1.16084
44.753
1.42329
39.5933
0.300389
0.108633
46.9302
0.623768
0.0156021
56.902
0.956178
-0.0572362
65.6327
1.24032
-0.162115
72.2927
1.43081
-0.145007
75.5189
1.42116
0.0304164
76.6649
1.25832
0.185497
75.6108
1.00197
0.388129
72.6517
0.556808
0.524513
71.3725
0.0390146
0.148977
80.8793
-0.236143
-0.479526
101.742
-0.310091
-0.679109
121.502
-0.336275
-0.582401
134.437
-0.334244
-0.418908
142.101
-0.304229
-0.253842
146.517
-0.230547
-0.100442
148.214
-0.0940988
0.0316556
146.171
0.0723993
0.109642
145.209
0.205203
0.0878162
145.724
0.30639
0.0523138
142.536
0.404816
-0.0145968
143.29
0.525039
-0.065632
146.551
0.657645
-0.138468
150.803
0.787954
-0.219768
152.987
0.90836
-0.293685
153.129
1.00182
-0.365505
151.527
1.05323
-0.415741
148.383
1.03755
-0.448481
143.812
0.95317
-0.445016
137.876
0.794376
-0.419872
130.466
0.590446
-0.379701
121.27
0.302072
-0.290406
109.205
-0.12572
0.113387
86.4877
-0.42414
0.250591
68.4054
-0.525202
-0.0285384
67.1649
-0.534533
-0.189858
62.3999
-0.384162
-0.0994371
53.0691
-0.17284
0.312111
44.7955
-0.0248369
0.989839
44.4913
1.37681
40.0514
0.150785
-0.0302159
60.6279
0.340219
-0.162981
75.9213
0.539675
-0.254813
81.9445
0.735064
-0.36847
79.5867
0.944094
-0.365655
76.4659
1.01688
-0.0569727
76.7517
0.918365
0.255213
75.7391
0.752569
0.519129
73.2009
0.599041
0.653691
71.5459
0.335847
0.411852
74.6493
0.0399034
-0.149626
88.5442
-0.101212
-0.504817
115.358
-0.159543
-0.509858
134.339
-0.188462
-0.38635
145.778
-0.19217
-0.248724
152.654
-0.163117
-0.126738
156.745
-0.0811584
-0.0450616
158.339
0.0337722
0.00371244
158.648
0.150454
-0.0217141
157.807
0.267391
-0.0612424
154.056
0.388237
-0.132273
155.181
0.523011
-0.194058
158.705
0.660247
-0.268977
161.331
0.792759
-0.34655
161.943
0.905894
-0.403045
160.602
0.990225
-0.448056
157.62
1.02961
-0.456227
153.209
1.00159
-0.425104
147.606
0.89026
-0.342591
140.968
0.69849
-0.241316
133.154
0.426099
-0.124145
123.578
0.0653128
0.0514093
110.495
-0.254114
0.428304
83.0097
-0.48141
0.457472
73.6387
-0.648256
0.126352
78.098
-0.705252
-0.114187
77.3972
-0.606551
-0.158905
68.3845
-0.343664
0.0814479
51.6431
-0.0693858
0.698475
43.7688
1.2855
39.9716
0.0101116
-0.0387945
67.1378
0.111897
-0.263313
82.3707
0.245509
-0.389151
86.0816
0.344547
-0.474161
76.961
0.511778
-0.539483
69.2592
0.616211
-0.15992
69.6691
0.595706
0.262191
71.2422
0.552098
0.540551
70.9574
0.532058
0.658146
70.7436
0.495761
0.44699
73.0812
0.333239
0.0397028
81.2932
0.15867
-0.279978
102.624
0.0569704
-0.374619
129.021
-0.00823506
-0.308493
146.306
-0.0384247
-0.213395
156.496
-0.0360455
-0.125374
162.314
-0.00363844
-0.0733297
165.952
0.0501974
-0.0458184
167.212
0.111671
-0.0793281
166.729
0.186342
-0.133601
163.109
0.275333
-0.217796
163.518
0.390147
-0.303352
166.662
0.533196
-0.40563
168.195
0.689291
-0.496236
167.297
0.837578
-0.545144
164.401
0.951254
-0.556964
159.91
1.006
-0.508716
154.343
0.967326
-0.38847
148.1
0.831589
-0.213538
141.45
0.620035
-0.0409914
133.985
0.33263
0.149747
124.786
-0.00918579
0.381003
111.899
-0.238464
0.663339
84.331
-0.395781
0.590997
75.4559
-0.545271
0.243952
81.6024
-0.612815
-0.0631373
87.8637
-0.583117
-0.165591
88.6266
-0.408268
-0.0290695
76.1505
-0.110858
0.440001
49.4091
1.15396
39.3632
-0.0615608
0.0216038
71.8545
-0.0277247
-0.292691
85.1677
0.0399059
-0.455815
88.7634
0.0446339
-0.472817
74.1714
0.0735703
-0.560188
65.361
0.22406
-0.310052
63.4375
0.298105
0.182998
66.8554
0.356638
0.469317
68.3142
0.481674
0.523279
69.3785
0.562859
0.364818
71.51
0.518648
0.103992
76.8257
0.36602
-0.0761576
94.4747
0.200612
-0.161186
122.47
0.0739582
-0.159349
144.749
-0.00491752
-0.126107
157.656
-0.0455273
-0.0808451
165.473
-0.0483923
-0.0670338
169.725
-0.0194377
-0.0711749
171.59
0.0339772
-0.129382
170.944
0.116092
-0.212318
166.906
0.224898
-0.321717
167.517
0.37131
-0.440865
170.845
0.542775
-0.565153
171.197
0.706559
-0.644434
168.663
0.82155
-0.643712
163.997
0.882738
-0.603633
158.004
0.891787
-0.507396
151.465
0.837874
-0.330406
145.031
0.69599
-0.074102
139.079
0.438944
0.211142
132.739
0.117494
0.464377
124.604
-0.149013
0.653139
110.78
-0.251734
0.779632
86.3927
-0.318574
0.640408
76.1757
-0.392594
0.286059
80.9326
-0.429515
-0.054369
89.3964
-0.401436
-0.194307
97.4477
-0.312609
-0.075886
94.4896
-0.140729
0.339997
66.4191
1.01097
39.3626
-0.0639216
0.0845195
72.1993
-0.0527685
-0.290721
85.4214
-0.0691156
-0.429554
90.7586
-0.136093
-0.386603
72.5194
-0.256726
-0.43021
63.8359
-0.135595
-0.425138
64.6698
0.178904
-0.134411
64.6913
0.388984
0.255275
66.6145
0.574962
0.336325
68.4879
0.695941
0.252524
71.2092
0.66674
0.163767
77.6185
0.530485
0.119916
93.8499
0.368845
0.0610288
119.674
0.232741
0.0110731
142.453
0.137586
-0.0152718
157.117
0.0764812
-0.0118115
166.094
0.0407832
-0.0257981
171.574
0.0225836
-0.048097
174.07
0.0159517
-0.116783
173.542
0.0247185
-0.213896
169.338
0.0629937
-0.350872
169.219
0.161449
-0.525522
171.981
0.320021
-0.701754
170.45
0.473868
-0.770413
165.09
0.566923
-0.711112
157.879
0.600256
-0.615316
150.33
0.581861
-0.472069
143.271
0.488002
-0.227024
137.358
0.273315
0.143873
132.786
-0.0204237
0.502141
127.571
-0.268335
0.716625
120.167
-0.378388
0.776604
106.394
-0.333661
0.75097
87.5555
-0.283824
0.581675
77.0859
-0.269039
0.245578
79.2786
-0.276494
-0.0747929
88.251
-0.2645
-0.201314
99.769
-0.250599
-0.0550676
97.1831
-0.194425
0.338789
74.2624
0.859382
43.1369
0.0911057
-0.00870619
63.6955
0.0107723
-0.184382
79.9975
-0.106582
-0.291079
92.0258
-0.256506
-0.212016
71.0271
-0.42926
-0.248305
63.8237
-0.473714
-0.373295
65.7083
-0.166094
-0.435625
68.3257
0.23924
-0.142367
70.0519
0.422658
0.16551
72.3883
0.485323
0.21351
77.4858
0.439042
0.248675
87.8827
0.343022
0.262795
105.923
0.226711
0.211659
126.63
0.107467
0.1492
144.106
0.00238657
0.0986574
156.848
-0.0819085
0.0759857
165.801
-0.147653
0.0432983
170.878
-0.189942
-0.000496166
172.63
-0.204965
-0.0940869
170.787
-0.177879
-0.232428
166.945
-0.0884047
-0.427394
167.444
0.0643571
-0.652938
169.028
0.188267
-0.780932
164.479
0.155451
-0.68725
155.917
-0.0727742
-0.441497
147.247
-0.406932
-0.24625
139.331
-0.708007
-0.145105
132.609
-0.925342
0.00555817
127.647
-1.03087
0.257597
123.561
-1.00755
0.485135
119.513
-0.88815
0.608099
112.383
-0.705456
0.609698
101.01
-0.491548
0.551023
87.8086
-0.334216
0.419527
80.0018
-0.316619
0.20103
83.6938
-0.40543
0.00713939
97.326
-0.465644
-0.0968089
97.6696
-0.446361
-0.0421508
78.7341
-0.322013
0.23957
67.7626
0.6043
51.0091
0.318383
-0.339871
56.4149
0.255686
-0.105518
64.8596
-0.0116692
0.0074377
89.3306
-0.271231
0.0676681
68.7926
-0.429654
-0.0821575
63.0287
-0.489622
-0.307856
65.0064
-0.403701
-0.518383
68.0481
-0.0947387
-0.442584
72.1758
0.175639
-0.0909119
79.2826
0.266781
0.14343
85.9628
0.303761
0.239831
95.6631
0.300318
0.294062
109.226
0.262977
0.270725
124.377
0.194398
0.233588
138.971
0.116337
0.187522
151.55
0.0460793
0.152771
161.06
-0.0134303
0.107778
167.106
-0.0664041
0.0582946
169.663
-0.130554
-0.0210243
168.175
-0.235008
-0.118655
163.138
-0.404872
-0.236872
163.341
-0.659598
-0.340871
161.791
-1.02464
-0.338948
151.108
-1.4454
-0.201576
138.291
-1.84098
-0.00264983
128.806
-2.15967
0.100039
122.938
-2.36742
0.080877
119.32
-2.39426
0.0462553
116.576
-2.19045
0.0639051
113.936
-1.83249
0.136128
110.091
-1.42344
0.208916
104.418
-1.02417
0.219767
97.1986
-0.675629
0.207974
90.4804
-0.461842
0.198381
88.176
-0.473754
0.194883
94.6587
-0.618837
0.17848
102.329
-0.756324
0.11747
90.4478
-0.769186
0.0056807
69.1698
-0.566992
0.0435021
61.259
0.0706035
56.1641
0.315482
-0.668304
62.2301
0.335488
-0.135679
64.5473
0.13643
0.241786
85.8896
-0.105229
0.299093
69.0964
-0.293307
0.109194
61.3989
-0.369413
-0.233265
63.9369
-0.342383
-0.553965
67.0488
-0.17832
-0.612625
69.4767
0.0711377
-0.330227
76.3987
0.19414
0.0307741
87.7999
0.220105
0.229004
97.3483
0.208131
0.324674
110.171
0.144296
0.352011
125.058
0.0557036
0.335278
140.116
-0.0541422
0.303233
152.753
-0.174028
0.27518
162.122
-0.317153
0.254652
167.141
-0.506193
0.256759
168.033
-0.799928
0.288683
165.004
-1.23503
0.352634
160.855
-1.82644
0.44784
153.247
-2.602
0.540099
138.334
-3.42188
0.535391
127.61
-3.96903
0.380118
124.117
-4.07563
0.137358
122.207
-3.84523
-0.100761
119.99
-3.50742
-0.231027
117.213
-3.17334
-0.265344
114.031
-2.81346
-0.275273
110.566
-2.36771
-0.292878
106.86
-1.85567
-0.290134
103.109
-1.35389
-0.27451
99.8502
-0.929184
-0.217544
98.4182
-0.646893
-0.0964034
100.673
-0.523043
0.0588594
106.983
-0.490546
0.15764
112.006
-0.519296
0.207152
106.599
-0.595867
0.155715
82.6827
-0.510613
-0.0287946
59.6488
-0.427757
55.3304
0.167436
-0.808048
65.2696
0.231144
-0.193659
76.4772
0.277432
0.226559
94.6817
0.253332
0.316291
80.9454
0.0941206
0.246376
68.1069
-0.0688413
-0.0758459
66.0566
-0.14809
-0.487972
69.6442
-0.052554
-0.725543
70.1071
0.157685
-0.541179
72.5105
0.299317
-0.10161
80.6028
0.31362
0.232465
93.0659
0.263088
0.398959
108.564
0.184588
0.454699
126.014
0.10168
0.436235
142.375
0.0251029
0.391375
155.289
-0.0438634
0.351123
164.493
-0.111608
0.329381
170.143
-0.184598
0.339781
172.203
-0.283596
0.402611
170.442
-0.430933
0.515957
166.543
-0.622552
0.676856
165.954
-0.858091
0.855398
161.191
-1.17402
0.94126
149.339
-1.5366
0.811522
138.264
-1.86253
0.513137
130.543
-2.1363
0.210252
124.571
-2.32262
-0.0194048
119.873
-2.32893
-0.239867
116.378
-2.13195
-0.455184
111.626
-1.7964
-0.612923
105.395
-1.40153
-0.668337
97.6565
-0.99973
-0.662865
89.1946
-0.649617
-0.565883
82.5706
-0.425721
-0.340181
81.6597
-0.337004
-0.0717349
88.9552
-0.344206
0.140264
103.796
-0.334777
0.220866
110.459
-0.336445
0.215228
96.53
-0.270704
-0.0663836
68.0826
-0.653653
54.1771
0.114299
-0.851478
60.9877
0.256933
-0.304179
82.606
0.443194
0.062524
97.5305
0.548165
0.197831
89.4098
0.509938
0.251443
78.5725
0.352291
0.0558862
73.7696
0.140251
-0.296312
74.3942
0.0275708
-0.63911
73.5815
0.140789
-0.666482
73.2173
0.275649
-0.232616
79.2343
0.248466
0.278989
91.9395
0.162701
0.512836
110.603
0.0693273
0.572209
130.189
-0.0111754
0.531747
146.558
-0.0798158
0.467453
158.669
-0.136211
0.412778
166.646
-0.181455
0.379477
171.267
-0.211848
0.376774
172.866
-0.221388
0.420806
171.25
-0.206242
0.509757
167.981
-0.13839
0.624321
168.839
-0.00492383
0.757098
169.755
0.112836
0.882353
164.355
0.11144
0.873761
155.868
-0.0443396
0.716058
148.558
-0.321512
0.51865
143.261
-0.636993
0.317093
139.186
-0.88494
0.0338565
132.564
-1.02905
-0.295838
124.661
-1.04485
-0.585008
116.742
-0.935475
-0.756383
105.664
-0.743159
-0.833526
91.4597
-0.557057
-0.749183
79.3425
-0.465848
-0.461296
76.7821
-0.45188
-0.133941
83.0752
-0.489429
0.13554
96.7916
-0.46628
0.205461
106.876
-0.357962
0.15463
98.8951
-0.218978
-0.163685
72.3751
-0.816886
47.364
0.161142
-0.940451
50.3535
0.432934
-0.493895
74.5945
0.714855
-0.16837
91.6269
0.862594
0.0460148
92.9474
0.8969
0.184709
87.3672
0.808329
0.111341
83.8131
0.583008
-0.102739
81.4914
0.321794
-0.414272
78.5623
0.213253
-0.58183
75.3861
0.234239
-0.250221
80.5353
0.171425
0.364726
94.2446
0.0681329
0.644855
114.553
-0.00765929
0.668169
134.251
-0.0628256
0.596885
149.35
-0.104107
0.51435
159.631
-0.128618
0.441176
166.443
-0.141169
0.396004
170.521
-0.138794
0.379502
172.08
-0.120047
0.408628
170.811
-0.0878177
0.483033
167.225
-0.022041
0.565449
168.119
0.111905
0.63721
171.389
0.29791
0.721708
169.668
0.469576
0.733842
164.564
0.56508
0.647864
158.48
0.59894
0.504108
152.702
0.573975
0.354229
147.372
0.430174
0.181982
142.195
0.151063
-0.0155497
136.388
-0.189425
-0.239004
128.338
-0.446478
-0.478441
114.316
-0.52588
-0.726405
94.6929
-0.527131
-0.748227
78.0306
-0.566102
-0.459149
76.2985
-0.593038
-0.152204
81.4096
-0.589663
0.0856402
88.9386
-0.546549
0.153602
97.0489
-0.403014
0.0535539
93.5514
-0.171352
-0.327666
69.4466
-0.971801
40.7215
0.17691
-1.10634
41.7971
0.569185
-0.825694
54.5089
0.969163
-0.478102
68.4699
1.22909
-0.142918
81.7709
1.32451
0.108755
88.1011
1.2407
0.18256
89.4609
0.988686
0.112579
87.6894
0.629177
-0.0996789
83.2673
0.340744
-0.330912
77.8751
0.18357
-0.0909112
81.1251
0.0308045
0.540921
97.4263
-0.0854045
0.780974
120.318
-0.14049
0.734697
137.913
-0.17809
0.638739
150.058
-0.195674
0.533063
158.42
-0.196095
0.441984
163.997
-0.175283
0.375797
167.282
-0.134738
0.340149
168.382
-0.0658987
0.341084
167.113
0.022521
0.39534
163.618
0.135271
0.454158
164.593
0.292662
0.485726
168.82
0.478118
0.546612
169.019
0.65279
0.57342
166.507
0.763624
0.551712
162.437
0.792093
0.486295
157.505
0.757031
0.395192
152.096
0.663838
0.274965
146.109
0.494504
0.149888
139.484
0.200094
0.0498715
131.425
-0.16014
-0.10824
119.977
-0.400971
-0.457578
96.4384
-0.577361
-0.576764
76.4245
-0.761292
-0.31646
77.1154
-0.887719
-0.0648688
83.5251
-0.91325
0.0991111
87.9084
-0.803434
0.0794416
86.2358
-0.514542
-0.160015
73.2094
-0.14289
-0.655007
50.8465
-1.13046
39.1546
0.152411
-1.28156
40.3805
0.500646
-1.1958
46.9426
0.880288
-0.860877
51.3065
1.2295
-0.458244
57.1904
1.45849
-0.0668643
67.2697
1.48979
0.197039
76.5079
1.31088
0.310567
82.1268
0.96168
0.231758
82.9559
0.528151
0.0645456
79.2335
0.117352
0.32099
81.6397
-0.130482
0.810631
103.965
-0.223472
0.885764
124.564
-0.266911
0.782222
138.923
-0.282793
0.654384
148.656
-0.278429
0.527078
155.366
-0.2538
0.415933
159.829
-0.209994
0.331342
162.352
-0.145851
0.275993
163.012
-0.0554867
0.250351
161.59
0.044829
0.293084
157.774
0.151559
0.345343
158.847
0.281303
0.356502
163.251
0.43254
0.396895
164.444
0.594433
0.41373
163.218
0.731691
0.416587
160.376
0.822607
0.395971
156.295
0.844001
0.371855
151.253
0.780384
0.333464
145.296
0.627287
0.294441
138.303
0.424562
0.241964
129.88
0.103283
0.202149
119.259
-0.31517
-0.0149082
97.6861
-0.623438
-0.272436
73.3103
-0.856157
-0.105159
72.9398
-1.00256
0.0890135
74.5414
-0.963653
0.0942837
70.074
-0.74448
-0.0989635
60.3587
-0.408331
-0.480555
49.192
-0.0963315
-0.985886
44.4742
-1.24797
39.7095
0.11184
-1.41874
40.7369
0.339098
-1.45231
48.0776
0.581648
-1.13152
51.5681
0.831935
-0.727522
53.4284
1.03888
-0.280352
55.0689
1.1148
0.121077
60.153
1.00835
0.414077
66.223
0.753168
0.478951
70.1541
0.285642
0.524202
71.7055
-0.173138
0.79459
87.3082
-0.355427
1.00419
110.213
-0.408752
0.942253
126.375
-0.424582
0.795344
137.589
-0.41252
0.637581
145.163
-0.380482
0.490337
150.278
-0.328022
0.359909
153.487
-0.252771
0.253884
155.033
-0.156528
0.17833
154.943
-0.0186801
0.110509
153.127
0.120519
0.150401
148.987
0.23621
0.226476
150.436
0.362937
0.23001
154.958
0.496208
0.264355
156.986
0.629823
0.279898
156.649
0.744407
0.301271
154.76
0.822749
0.315094
151.546
0.854364
0.336064
147.227
0.830295
0.350106
141.773
0.737905
0.377165
135.216
0.570663
0.396102
127.239
0.337807
0.42101
117.394
-0.0924273
0.41013
102.013
-0.507382
0.151321
68.5218
-0.673821
0.0649203
63.2159
-0.729338
0.152478
59.68
-0.650184
0.0209584
54.134
-0.454065
-0.296778
48.5019
-0.237134
-0.716196
46.5938
-0.0585076
-1.1878
45.4279
-1.32674
39.8943
0.0674672
-1.50842
40.5059
0.173741
-1.58196
48.6257
0.270375
-1.24993
52.6894
0.371981
-0.844114
54.3932
0.455361
-0.371368
54.3937
0.456472
0.115811
55.6106
0.333044
0.528695
59.5168
0.0748868
0.720745
62.9452
-0.292344
0.88741
76.6848
-0.533471
1.04509
96.4107
-0.59969
1.07251
113.357
-0.603215
0.941827
125.712
-0.581485
0.766278
134.077
-0.541574
0.59027
139.617
-0.482958
0.425686
143.094
-0.408291
0.281625
144.92
-0.316108
0.160586
145.192
-0.194303
0.0576909
143.815
-0.0223338
-0.0581307
139.333
0.135431
-0.00917363
135.515
0.250379
0.109063
139.014
0.358779
0.122062
143.753
0.470184
0.153216
146.617
0.591757
0.157046
147.08
0.706087