/*--------------------------------*- C++ -*----------------------------------*\
  =========                 |
  \\      /  F ield         | OpenFOAM: The Open Source CFD Toolbox
   \\    /   O peration     | Website:  https://openfoam.org
    \\  /    A nd           | Version:  11
     \\/     M anipulation  |
\*---------------------------------------------------------------------------*/
FoamFile
{
    format      ascii;
    class       volVectorField;
    location    "900";
    object      U;
}
// * * * * * * * * * * * * * * * * * * * * * * * * * * * * * * * * * * * * * //

dimensions      [0 1 -1 0 0 0 0];

internalField   nonuniform List<vector> 
128000
(
(5.15479 -1.31237 19568.7)
(-1.80496 118.668 25016.9)
(-21.0058 206.218 25184.1)
(-20.6264 278.536 26285.7)
(-56.9944 386.994 27339.5)
(-79.7523 455.182 28020.1)
(-119.298 522.785 28474.3)
(-153.102 550.682 28587.9)
(-187.724 550.154 28318)
(-205.458 507.408 27606.9)
(-201.159 440.479 26746.5)
(-185.691 365.167 25673.1)
(-162.52 275.806 24451.4)
(-143.834 145.172 26020)
(-88.0559 29.3399 34334.7)
(-45.3987 21.8236 40158.6)
(-12.6872 52.606 43271.3)
(-28.1374 93.6134 43744.4)
(-69.3186 68.4662 40618.3)
(-107.79 -23.1873 35988.4)
(15.6781 -164.437 36030.4)
(128.636 -164.065 39980)
(173.555 -145.931 40838.2)
(166.755 -154.682 36971.4)
(199.28 -174.136 29637.1)
(296.356 -206.723 25734.2)
(395.821 -236.904 26305.9)
(481.897 -262.416 27540.1)
(561.329 -277.734 28514.1)
(632.297 -280.588 29282.3)
(685.288 -265.842 29914.7)
(711.684 -234.769 30252)
(698.25 -191.462 30257.1)
(660.042 -151.296 29964.4)
(587.763 -105.813 29381.6)
(507.352 -76.4651 28544.7)
(404.477 -39.9113 27470.6)
(307.138 -27.0242 26130.3)
(226.156 -17.0209 25528.9)
(94.03 4.77437 23911.9)
(-4.40326 -125.431 24944.3)
(57.922 -2.34278 26463.5)
(32.2672 115.798 27831.4)
(44.8843 179.824 29463.6)
(36.3792 329.192 31004.2)
(8.6709 401.169 31881.1)
(-29.0887 487.986 32502.8)
(-83.4312 536.356 32670.5)
(-145.926 548.82 32348.1)
(-215.23 507.204 31491.7)
(-251.022 413.723 30208)
(-251.098 297.89 28570.5)
(-229.393 151.725 26553)
(-184.807 -26.2601 28670.9)
(-110.975 -84.4646 40982.7)
(-16.7098 -42.791 47285.6)
(35.4452 -32.4472 48483.7)
(45.7824 -21.7974 48305.3)
(35.7901 -55.6929 45409.9)
(-89.9546 -106.249 36247.8)
(-102.033 -128.241 34485.7)
(-63.7249 -25.8889 42628)
(-25.0325 -33.3399 47063.3)
(-18.5413 -72.6021 47322.1)
(-18.4732 -156.906 38999.7)
(75.9283 -233.054 28760.7)
(247.311 -298.132 28658.9)
(391.767 -328.122 30559.8)
(514.278 -329.559 31981.7)
(613.482 -301.843 33023.2)
(678.335 -244.323 33742.1)
(700.923 -174.349 34232.5)
(676.14 -107.937 34389.9)
(624.344 -52.5202 34157.5)
(532.821 -6.30159 33481.1)
(449.504 21.4052 32476.1)
(309.666 43.787 30982.2)
(228.152 27.5947 29083.9)
(106.061 58.6202 27460.5)
(3.63337 11.8666 25567.5)
(-20.8659 -205.059 25082.1)
(29.6712 -115.446 27776.1)
(62.1976 1.53109 29891.7)
(74.7368 93.9644 31556)
(89.8359 206.825 32991.7)
(94.4761 295.503 34109.9)
(77.6855 387.164 34863.5)
(40.7618 443.689 34983.4)
(-20.6455 467.383 34415.7)
(-117.181 432.938 33041.3)
(-203.546 325.687 31376.4)
(-245.142 184.47 29379.2)
(-266.211 14.0749 27171.4)
(-248.805 -187.079 30845.5)
(-158.733 -212.541 44044.9)
(-44.9316 -149.065 47162.8)
(55.9226 -101.589 48002.9)
(94.8308 -87.4891 49043.4)
(96.8673 -65.7919 50318.3)
(23.9163 -89.4967 48469.9)
(-107.156 16.9842 44761.1)
(-126.255 79.034 49239.3)
(-158.101 31.1144 51216.2)
(-174.119 -60.7567 51077.2)
(-208.388 -195.238 45609.1)
(-153.773 -259.994 31655)
(45.0269 -307.723 28944.9)
(227.815 -296.315 30980.3)
(376.211 -265.21 32602)
(496.613 -203.102 33760.5)
(570.324 -117.531 34779.2)
(592.388 -37.466 35864.7)
(562.987 23.2866 36451.1)
(510.748 61.0197 36452.2)
(416.498 86.4571 35751.2)
(329.391 85.0921 34620.7)
(201.954 73.4325 33003.5)
(106.922 64.5885 31182.7)
(-19.2462 38.1774 28934.9)
(-133.462 -13.52 25555.4)
(-21.4714 -276.714 26188.2)
(44.4047 -177.653 29420.2)
(76.3515 -86.9739 31537.5)
(123.316 4.91571 33268)
(144.894 119.894 34670.5)
(157.213 205.653 35701.5)
(164.106 292.833 36455.9)
(137.264 351.73 36569)
(98.4774 375.282 35760.6)
(-5.14646 335.984 33660.7)
(-141.886 221.008 31283.2)
(-215.453 51.7898 29113.8)
(-271.753 -141.528 27176.3)
(-291.417 -334.813 33056.1)
(-175.062 -297.307 43064.9)
(-27.621 -208.19 41237.5)
(40.8097 -156.128 39261.4)
(97.2657 -96.4847 38557.5)
(94.871 -60.3672 38467.1)
(80.175 -2.88297 37047.5)
(-23.292 94.2514 33653.4)
(-127.722 70.377 36616.3)
(-203.934 -0.432356 41453.1)
(-262.418 -85.885 45404.7)
(-321.623 -209.661 46456.3)
(-361.784 -276.593 36276.3)
(-185.344 -297.579 28781.6)
(27.1197 -259.18 30243.6)
(194.977 -201.309 31720.1)
(350.641 -112.857 32744.5)
(440.757 -0.686439 34582.1)
(475.19 81.1607 36621.5)
(449.099 129.307 37722.3)
(407.743 156.369 37972.1)
(311.304 162.555 37294.3)
(230.141 143.682 36218.6)
(113.719 137.86 34755.7)
(4.20901 88.8689 32906.2)
(-77.9587 55.1103 30497.4)
(-195.582 -2.22688 27026.7)
(-57.1101 -376.664 27152.2)
(31.1397 -322.16 30851)
(89.0034 -195.867 32875.3)
(140.099 -104.923 34585.5)
(199.974 8.88381 35971.9)
(224.436 104.796 37034.2)
(250.259 188.627 37745.6)
(242.878 246.335 37807.1)
(217.1 273.748 36910.8)
(151.363 244.358 34521.2)
(-28.9339 119.589 29410.3)
(-185.078 -50.8897 27881.2)
(-265.212 -258.281 27054.5)
(-340.855 -428.268 34589.2)
(-229.708 -354.648 40551.9)
(-59.092 -257.109 35786.7)
(84.1625 -169.402 32854.5)
(127.689 -101.429 31413.6)
(136.548 -15.8471 31281)
(133.468 60.241 30863.7)
(86.4963 101.832 29639.9)
(-28.0935 61.5565 29857.5)
(-171.384 9.28525 33686.8)
(-277.662 -79.7403 38882.3)
(-375.463 -195.594 43364)
(-482.771 -281.281 40115.9)
(-386.991 -271.021 29918)
(-153.687 -199.003 28953.3)
(27.6493 -106.307 29588.3)
(190.293 28.2898 30228.7)
(301.538 154.135 34152.4)
(339.013 216.984 37199.1)
(320.365 247.148 38715.1)
(277.595 256.366 39122.2)
(197.989 236.223 38623.1)
(110.149 211.348 37557.1)
(-10.0145 164.152 36077.6)
(-110.208 98.2655 34220)
(-247.872 55.6433 32089.6)
(-332.278 -42.3673 28278.9)
(-76.9467 -435.257 27747.2)
(3.83515 -382.319 31602.9)
(93.4442 -273.771 33848.8)
(153.8 -182.981 35485)
(222.826 -79.6458 36879.8)
(269.943 15.6483 38048.9)
(307.609 97.2286 38911.7)
(319.07 152.144 39115.4)
(304.568 171.299 38223.2)
(261.489 156.843 35738.7)
(136.361 41.6796 31351.5)
(-111.331 -102.755 26662.7)
(-245.662 -333.297 27295.9)
(-356.361 -438.644 35263.1)
(-293.601 -328.689 38551.9)
(-168.048 -225.085 34453.6)
(-54.5552 -112.668 30675.6)
(117.604 -25.4974 29767.8)
(164.146 16.3988 30393.7)
(178.105 66.1116 30533.2)
(164.949 68.7854 29406.2)
(94.6178 16.7304 29301.1)
(-48.2568 -35.8193 31116.8)
(-220.742 -127.883 35854)
(-351.544 -207.643 40693.6)
(-504.163 -282.516 41274.8)
(-491.604 -244.099 32192.1)
(-312.565 -144.408 28968.9)
(-108.782 -1.76066 28223)
(48.2308 165.862 30601.6)
(156.536 263.211 34724.2)
(201 312.738 38027.4)
(197.689 328.782 39859)
(162.98 320.289 40343.6)
(92.9552 288.281 39777.5)
(7.63712 242.795 38581.4)
(-98.668 181.34 37016.4)
(-192.204 116.198 35138.7)
(-313.113 39.6315 32865.7)
(-407.032 -62.588 28969.6)
(-115.038 -491.677 28090.8)
(-35.7326 -462.489 32109.4)
(72.4066 -364.594 34464.8)
(156.499 -266.272 36053.8)
(245.558 -159.465 37363.9)
(304.164 -62.2386 38666.8)
(358.719 18.7657 39852.4)
(380.168 76.6809 40516.9)
(384.749 92.3309 40156.6)
(339.202 85.1519 38136.9)
(265.111 -3.04367 33990.1)
(7.8167 -134.382 26081.6)
(-214.982 -326.436 27856.8)
(-332.852 -387.963 34692.6)
(-311.521 -250.605 36163.6)
(-232.328 -116.284 33443.2)
(-159.144 -19.2192 30783.7)
(-100.266 27.0916 29026.3)
(111.303 31.564 30072.4)
(191.754 45.1955 30833.5)
(202.863 15.5686 29719.3)
(183.573 -39.9139 29811.2)
(109.157 -94.8685 31564.3)
(-68.3822 -147.954 34372.2)
(-240.19 -207.466 38206.4)
(-436.073 -260.74 40511.2)
(-494.694 -205.893 33861.7)
(-370.042 -71.6087 29968.9)
(-199.014 110.779 28532.6)
(-49.337 272.417 32401.6)
(46.2283 358.822 36800)
(88.4337 400.638 39978.4)
(90.8601 401.05 41557.1)
(61.2843 381.433 41713.9)
(-2.73012 332.431 40815.5)
(-82.766 276.287 39342.2)
(-194.561 198.521 37699.3)
(-303.986 107.801 35937.9)
(-424.273 9.54653 33528.5)
(-502.359 -106.233 29490.5)
(-142.988 -503.877 28055.5)
(-91.0326 -494.701 32120.8)
(34.5517 -405.811 34381.3)
(127.048 -310.975 35906.5)
(233.215 -206.042 37121.6)
(311.776 -108.132 38544.9)
(378.535 -30.8775 40203)
(412.074 24.5736 41594.1)
(429.148 44.6846 42172.6)
(403.057 34.021 41340.7)
(347.884 -6.6646 38794.2)
(175.969 -125.452 34322.2)
(-154.847 -250.806 28264.4)
(-311.013 -271.979 32896.6)
(-298.989 -134.581 33411.4)
(-270.264 -25.3602 31839.6)
(-204.317 59.2486 30121.1)
(-174.512 53.9022 28845.9)
(-125.006 18.33 29100.1)
(107.592 19.4122 31625.2)
(153.371 2.13682 30503.9)
(169.242 -68.3308 29376.6)
(187.048 -115.57 30605.1)
(79.3398 -175.48 32680.9)
(-83.0754 -204.587 35378.5)
(-286.073 -234.584 37869.9)
(-410.159 -166.281 34158.8)
(-334.65 -13.2718 30484.4)
(-215.817 202.095 32246.3)
(-104.498 350.578 36629.3)
(-34.1152 421.582 40434.3)
(3.79844 447.461 42793.4)
(10.9614 435.477 43591.6)
(-12.9652 403.24 43018.7)
(-67.0162 344.006 41481)
(-145.522 277.362 39542.9)
(-251.809 181.903 37765.6)
(-358.979 87.4118 35891.1)
(-489.042 -31.8458 33599.8)
(-562.344 -142.836 29699.7)
(-171.874 -487.121 27578.9)
(-153.257 -489.945 31589.2)
(-37.5249 -415.91 33533.9)
(83.5326 -324.791 34746.1)
(201.931 -229.618 35837.1)
(288.844 -125.652 37221.8)
(372.323 -44.8433 39453.4)
(420.649 6.97027 41741.6)
(445.858 24.3788 43488.4)
(435.081 16.0813 43935.1)
(392.216 -18.5129 42716.3)
(296.586 -82.9063 39490.5)
(45.4895 -165.043 33170.8)
(-266.398 -131.768 31298.7)
(-286.82 -40.7949 31204.5)
(-275.552 47.8254 30363.2)
(-247.479 66.4929 29362.5)
(-212.018 25.8551 28556.6)
(-177.66 -9.78064 29164.5)
(-99.4688 21.9006 31731.6)
(53.5346 3.54838 32782.1)
(30.7348 -39.5533 30504.6)
(100.31 -102.058 30007.3)
(112.679 -131.57 30930.3)
(42.3564 -161.951 32418.7)
(-107.088 -178.738 34185.2)
(-265.411 -116.572 33203.3)
(-263.262 93.5599 32343.4)
(-194.303 307.288 37525.6)
(-127.886 414.68 41711)
(-77.6553 462.462 44418.8)
(-43.5263 471.766 45597.7)
(-33.6293 448.952 45334)
(-51.5534 409.283 43782.8)
(-99.8029 341.54 41387.1)
(-174.589 265.32 38867.7)
(-288.116 163.54 37064.3)
(-403.399 50.2769 35247.8)
(-540.238 -81.6029 33246.3)
(-611.74 -187.781 29652.9)
(-176.034 -429.156 26771.5)
(-214.161 -424.72 30447.2)
(-136.556 -358.947 31943.3)
(-44.4043 -253.367 32159.7)
(115.479 -162.049 32940.8)
(238.325 -90.5734 34217.1)
(323.586 -26.0347 37092.5)
(387.001 19.8296 40430.3)
(430.325 36.253 43597)
(436.194 27.0953 45513.2)
(413.041 -2.19533 45942)
(349.763 -48.1765 44547.6)
(239.603 -94.6225 41400.8)
(0.268721 -80.0933 35438.4)
(-200.129 -28.6986 31390.8)
(-218.972 -0.888221 30279.6)
(-228.25 3.88478 29297.6)
(-215.179 -51.2848 28724.4)
(-187.613 -48.3778 30134.5)
(-135.749 22.6819 33333.9)
(-85.8469 35.2408 35941.9)
(-64.1776 -6.15814 34646.5)
(-77.9519 -38.2112 32541)
(-39.8622 -68.5008 32662.5)
(-50.085 -65.1653 33266.9)
(-96.9471 -48.7642 34192.3)
(-192.854 77.032 35938.9)
(-223.628 273.156 40916.4)
(-189.626 388.358 44435.9)
(-147.318 445.44 46767.3)
(-100.242 464.835 47874.6)
(-65.6427 457.909 47725.3)
(-48.3823 426.966 46291.6)
(-61.1864 379.159 43578.4)
(-97.9389 302.206 40039.6)
(-166.844 225.635 36751.9)
(-278.454 107.753 34574.7)
(-406.275 -5.88419 33367)
(-555.159 -137.178 32317.5)
(-628.297 -226.849 29320)
(-163.862 -357.36 25794.3)
(-230.359 -317.354 29002.9)
(-205.502 -227.942 30079.2)
(-162.39 -119.556 29836.1)
(-89.2172 -45.1395 28212.1)
(71.9456 21.505 28510.1)
(214.302 74.8019 32720.8)
(314.762 66.8996 37220.5)
(376.137 62.0184 42077)
(402.629 52.3688 45553.3)
(394.362 22.5672 47731.5)
(354.662 -22.9334 48123.3)
(288.516 -71.965 46508.1)
(189.785 -103.611 43014.8)
(39.2597 -83.3019 36911.5)
(-99.8778 -83.1003 32842.3)
(-157.658 -90.0354 30493)
(-181.06 -109.346 30422)
(-176.949 -43.4385 33271.7)
(-149.943 27.9906 36676.8)
(-123.357 56.9781 38575.3)
(-138.076 34.0628 38444.9)
(-151.336 35.9712 37548.8)
(-167.323 61.1075 37947.7)
(-181.85 95.4656 39101.4)
(-205.22 167.968 41859.3)
(-238.787 267.817 45277.3)
(-233.643 359.09 47866.5)
(-193.955 408.709 49559.2)
(-146.703 436.759 50341.8)
(-98.2577 437.008 50132.8)
(-57.618 421.341 48834.6)
(-34.3851 384.374 46253.4)
(-38.8756 327.347 42143.4)
(-50.7288 240.086 37007.6)
(-98.856 148.262 32556.9)
(-219.115 38.7061 30393.1)
(-368.647 -56.2073 30735.6)
(-537.115 -185.573 31081.5)
(-625.018 -258.708 28791.2)
(-141.346 -277.41 24549.7)
(-216.655 -193.421 27113.3)
(-237.126 -82.0074 27839.2)
(-224.716 54.098 27588.8)
(-211.048 150.04 26773.8)
(-169.945 211.624 26033.6)
(-57.9247 212.078 25844.3)
(93.3192 185.952 31425.9)
(261.917 131.44 38726.7)
(338.69 96.823 43869.2)
(353.047 68.516 47782.8)
(327.349 24.2041 50250.3)
(282.795 -28.1313 50729.7)
(221.769 -69.1012 49573.9)
(148.768 -101.938 46579.6)
(49.45 -109.415 40844.1)
(-65.977 -124.252 36561.4)
(-126.861 -101.87 36368.5)
(-147.295 -20.5728 39922.9)
(-137.763 37.9073 41940.2)
(-131.446 56.5475 42917.3)
(-143.089 61.623 43211.8)
(-168.151 87.1927 43890.2)
(-184.147 128.904 45319.2)
(-202.621 186.925 47759.1)
(-217.337 245.398 50083.6)
(-223.788 296.648 51643.9)
(-204.22 349.006 52596.9)
(-168.353 377.532 52890.9)
(-126.859 390.341 52486.3)
(-79.8696 380.503 51277.3)
(-36.2119 356.362 49032.9)
(-9.04927 313.112 45278.1)
(4.73987 222.972 39053.1)
(28.5809 100.644 31478.6)
(-0.450035 45.7722 27388.4)
(-122.449 -14.9779 26825)
(-310.375 -96.7521 28498.4)
(-500.698 -224.177 29877.9)
(-602.808 -283.012 28125)
(-126.24 -168.895 23981.3)
(-186.206 -21.9998 25703)
(-243.91 114.524 26540.9)
(-271.365 259.427 27115.1)
(-291.824 357.429 27762.5)
(-291.427 407.828 28647.5)
(-267.834 384.339 29383.5)
(-223.74 281.825 29486.5)
(-40.3803 183.501 31934.8)
(200.971 127.211 40405.5)
(277.826 109.146 45855.2)
(274.631 69.8888 50404.5)
(242.179 17.2439 52565.2)
(195.192 -33.5786 53137)
(145.652 -71.7136 52414)
(77.6677 -103.463 50034.3)
(0.735592 -107.595 46578)
(-82.0097 -72.8678 45727.8)
(-109.319 -9.71346 47372.7)
(-121.753 32.4117 47192)
(-119.762 63.2471 47529.9)
(-142.327 89.002 48431.2)
(-159.404 128.598 49972)
(-177.724 180.763 52084.3)
(-188.482 225.713 53705.3)
(-191.615 270.647 54747.1)
(-187.644 308.927 55231.8)
(-172.26 342.792 55231.7)
(-144.178 352.71 54695.6)
(-106.652 350.849 53568.5)
(-62.7587 323.307 51693.3)
(-10.4411 288.681 48703.6)
(10.0176 212.537 43500.2)
(66.4654 38.8372 32443.9)
(132.49 -21.4395 29597.6)
(139.988 -8.48349 28830)
(23.8802 -60.7185 26250.3)
(-209.644 -127.746 26879.6)
(-439.306 -254.882 28801.3)
(-567.849 -295.551 27345.9)
(-88.0845 -16.3689 31049.7)
(-130.4 119.017 35214.1)
(-201.106 257.279 38184.3)
(-242.433 371.337 39724.5)
(-302.66 436.723 39374)
(-339.088 422.777 38091.2)
(-324.579 350.746 35945.2)
(-312.206 234.743 33177.8)
(-274.065 107.896 31432.5)
(-41.3852 84.2505 34486.8)
(179.986 123.57 42113.6)
(214.202 111.212 48980.7)
(196.926 66.5619 52946.9)
(162.123 23.418 54848.2)
(122.815 -16.8386 55592.4)
(80.4929 -39.0197 55445.1)
(24.9463 -55.7041 54070.3)
(-30.2529 -33.3977 53265)
(-58.7195 4.65015 53151.9)
(-73.0053 39.5283 51841.1)
(-80.0092 70.8114 52115.3)
(-94.5833 103.003 53450.9)
(-111.507 142.768 55311.6)
(-127.409 184.948 56587.5)
(-142.51 225.069 57282.9)
(-153.426 265.114 57493.1)
(-157.452 293.979 57272)
(-152.175 315.018 56635.4)
(-132.193 309.466 55570.8)
(-105.994 290.988 53986.5)
(-58.8467 243.629 51686.8)
(-17.2938 196.422 48101.8)
(-17.3148 35.5394 39507.3)
(64.0782 -105.114 32529.6)
(173.795 -87.6882 33379)
(235.523 -80.0642 32535.5)
(175.171 -112.057 29153.8)
(-60.4572 -158.27 26035.7)
(-347.948 -263.1 27494.9)
(-524.602 -296.17 26462.8)
(-18.9023 30.5397 38637.5)
(-36.1592 103.958 45390.6)
(-71.8296 202.1 46180.6)
(-83.7089 276.043 42468.1)
(-138.452 328.388 38804.2)
(-232.439 295.86 37189.4)
(-269.729 211.241 35169.4)
(-281.823 99.289 32695.5)
(-270.576 17.9634 30852.5)
(-189.937 42.7886 31188.9)
(29.7084 102.53 35960.9)
(140.913 134.947 45664.2)
(146.529 95.8899 51983.9)
(119.371 52.661 55312.9)
(95.2101 10.0424 56963.7)
(57.046 -19.0643 57687.9)
(31.1113 -32.5117 57637.9)
(-12.3141 -19.1182 57278.6)
(-27.7924 7.24501 56663.4)
(-51.9436 41.316 55164.3)
(-57.3599 77.8635 55567.2)
(-76.2805 119.624 56985.6)
(-86.2425 163.914 58246.2)
(-99.0473 213.505 58949.4)
(-109.57 254.428 59107.5)
(-121.052 289.954 58816.4)
(-130.448 309.713 58130.5)
(-137.975 312.963 57110.3)
(-133.814 290.175 55783.7)
(-115.607 246.552 54055.2)
(-75.4441 185.373 51627.4)
(-34.1586 89.2715 47657.8)
(-37.3581 -89.0388 37092.6)
(0.84114 -159.214 34197.8)
(158.091 -140.095 37843.5)
(258.766 -122.019 39291.9)
(273.133 -125.14 36514.9)
(115.002 -155.3 29119.3)
(-213.548 -236.027 26151.9)
(-471.469 -286.747 25453.5)
(14.1023 15.4821 41515)
(47.1916 84.0114 47901)
(27.215 162.878 47290.2)
(32.123 218.742 40109.1)
(11.0237 245.978 34382.2)
(-116.543 205.074 33074.2)
(-194.496 89.8946 32451)
(-249.652 7.00379 31122.4)
(-262.123 -44.188 29984.1)
(-214.314 23.722 30031.9)
(-90.4329 112.358 32495.4)
(35.5889 145.097 40018.1)
(77.8121 130.251 49206.7)
(74.6043 89.6089 54733.5)
(59.5614 48.0171 57597.1)
(42.4336 26.6175 58936.9)
(25.6011 13.2115 59612.9)
(9.03053 19.7728 59584.6)
(3.77986 36.6573 59095.2)
(0.553909 63.3545 57657.5)
(-1.61464 93.7741 57802.3)
(-9.01387 128.236 59072.1)
(-23.1898 168.283 59935.5)
(-44.492 213.506 60096.8)
(-72.0386 252.736 59695)
(-99.5051 287.671 58853.1)
(-124.392 302.853 57736.1)
(-146.171 296.545 56468.7)
(-154.546 250.58 55131.3)
(-150.627 186.475 53539.5)
(-133.797 97.0975 51277.9)
(-107.363 -15.2268 47434.9)
(-99.6969 -165.097 37003.1)
(-66.9955 -182.04 34366.9)
(79.3981 -159.761 38725)
(183.277 -124.169 43614.9)
(228.355 -119.148 46204.5)
(164.52 -128.29 41868.7)
(-69.5141 -192.677 28752.6)
(-415.163 -265.966 24325.4)
(25.6058 -19.6387 43396.3)
(75.8375 71.702 48466.3)
(103.347 120.94 47795)
(87.0627 162.955 37946.3)
(136.818 159.734 31893)
(7.3634 94.3462 29626.9)
(-120.753 12.3955 29990.9)
(-179.514 -51.6169 29534.1)
(-222.604 -47.7605 29004.8)
(-213.897 29.7084 29002.4)
(-144.585 112.272 30323.5)
(-64.1163 146.4 36399.2)
(2.75189 124.722 46172.3)
(22.2597 84.2375 53545.9)
(34.2859 41.8468 57390.4)
(23.2645 14.2885 59441)
(25.68 -3.09057 60327.7)
(10.9217 -1.00132 60510.7)
(15.5015 11.4108 59966.6)
(8.29423 41.4606 58396.8)
(13.5955 78.6998 58610.9)
(6.47362 130.335 59933.6)
(4.06755 191.634 60374.2)
(-10.7734 256.47 59953.5)
(-27.3166 299.005 58914.5)
(-48.5305 318.38 57518.3)
(-74.8238 308.632 56025.3)
(-114.847 268.854 54658.9)
(-147.499 202.477 53557)
(-153.847 120.226 52380.7)
(-128.567 6.55601 50536.6)
(-114.892 -118.381 46324.1)
(-121.166 -218.549 37363.7)
(-97.1076 -194.493 34168)
(32.4569 -148.584 37784.6)
(129.892 -76.9412 43603.8)
(185.431 -66.1841 49850.8)
(119.616 -71.4458 50899.5)
(-13.5941 -150.579 37833.9)
(-325.268 -254.125 23769.4)
(6.39075 -44.5031 42852.4)
(82.3011 72.4815 47840.8)
(126.43 111.642 48151.7)
(123.278 99.9277 36596.9)
(163.831 79.9249 30748.5)
(168.942 22.2523 29840.2)
(-39.5831 -14.2573 28690.6)
(-160.859 -26.9398 28492.4)
(-200.014 14.0283 28342.7)
(-210.559 92.7208 28602.1)
(-178.475 143.444 30353.8)
(-134.736 138.033 35836.6)
(-85.9634 109.841 44731.2)
(-45.1922 82.2563 52257.6)
(-20.2209 54.855 56727.9)
(-5.75272 38.3607 59187.4)
(6.46848 28.3807 60505.4)
(18.6103 32.2551 60909.1)
(38.379 44.7191 60410.4)
(61.0844 69.0248 58795.1)
(83.4676 96.3263 58754.1)
(98.1634 136.954 59869.6)
(93.1332 186.961 59647.6)
(61.9345 233.007 58225.9)
(20.9321 245.473 56265.4)
(-9.77376 242.88 54279.1)
(-35.174 221.854 52550.6)
(-64.69 178.374 51319.5)
(-97.4829 87.5337 50675.5)
(-118.191 -51.3768 49871.3)
(-116.913 -183.137 48265.4)
(-101.508 -253.348 44038)
(-99.2429 -267.552 37459.6)
(-90.5109 -206.688 34186.5)
(-0.242797 -136.115 36567.9)
(74.7496 -51.1166 42491.2)
(135.966 -30.1388 50338.9)
(90.056 -34.937 51572.4)
(-13.2844 -150.848 41614)
(-239.49 -260.208 25626)
(-50.7073 -1.03998 37372.6)
(45.6855 102.367 44337.5)
(110.91 81.8146 48351.4)
(110.914 42.8616 35519.3)
(171.086 -11.0569 30479.9)
(214.679 -18.6523 30076.9)
(193.452 -21.135 30077.5)
(-51.6649 11.7262 29753.3)
(-132.384 25.0735 29758.8)
(-159.453 66.7058 30927.2)
(-152.424 56.0749 34156.6)
(-138.411 40.3203 40198.1)
(-95.4179 24.6015 47047.8)
(-59.3705 15.9769 52562.3)
(-18.5171 -2.22968 56319.9)
(-3.89399 -18.8069 58766.6)
(20.5807 -34.5394 59943.6)
(29.4613 -40.6221 60092.9)
(52.1574 -37.8074 59147.3)
(65.9336 -16.4606 57669)
(91.168 24.2098 57842.5)
(108.108 99.9291 58543.7)
(126.379 186.425 57267.8)
(131.604 226.024 54709.5)
(153.231 185.115 52201.2)
(196.731 96.5436 50037.4)
(239.089 -17.8906 48370)
(225.058 -138.824 47417.7)
(170.339 -279.914 46874.2)
(98.7911 -362.538 46433.3)
(54.8332 -381.455 44848.2)
(15.513 -348.089 41525.6)
(-14.5401 -293.354 37298)
(-30.4506 -204.329 35213.2)
(28.2899 -112.901 38294.9)
(118.337 -54.7381 46471.6)
(181.198 -66.4434 48848.7)
(134.355 -113.006 41373.8)
(32.7883 -195.886 37556.7)
(-149.202 -250.617 29966.7)
(-41.4989 109.075 32905.8)
(-78.919 128.044 35755.1)
(15.8058 85.4349 46711.3)
(66.7588 -15.527 34243.2)
(132.536 -61.4836 29971.2)
(189.961 -41.8008 29635.5)
(232.712 -7.27185 29840.7)
(154.357 15.3739 30546.2)
(-45.8284 7.69019 32482.5)
(-99.9185 7.31411 34197.7)
(-125.087 7.14134 37059.9)
(-132.171 4.68475 41320.1)
(-117.6 8.14574 46072.7)
(-92.4186 9.56833 50546.3)
(-63.4939 1.16274 54269.6)
(-37.8078 -3.43796 56934.5)
(-13.3376 -8.90691 58467.1)
(13.8512 -1.95488 58907.5)
(52.7048 12.6346 58093.8)
(107.93 38.4857 56210)
(186.244 58.3637 56283.7)
(277.149 64.5552 55904.3)
(344.557 0.855949 52487.9)
(373.266 -150.056 48404.4)
(371.09 -333.377 45544)
(395.367 -473.14 44028.5)
(452.902 -538.675 43398.9)
(495.774 -571.299 43179.4)
(470.184 -567.923 43094.4)
(382.424 -529.477 42640.7)
(271.402 -471.086 41534.4)
(178.751 -383.349 39820.9)
(103.226 -289.552 38292.1)
(50.0732 -198.564 38664.1)
(49.7613 -148.795 43144.4)
(104.689 -165.095 48667.7)
(177.735 -181.879 45047.8)
(236.289 -196.661 36173)
(165.792 -231.665 33764.4)
(1.65027 -229.587 32785.3)
(86.7297 203.806 36298.5)
(-84.9057 144.603 35568.6)
(-120.485 11.8694 44914.6)
(-64.8864 -53.0559 34379.6)
(63.5803 -55.5019 29194.3)
(160.138 -16.1944 29144.9)
(222.234 35.351 29397.7)
(190.654 46.1474 29397.9)
(71.4363 47.9722 31299.9)
(-62.1734 26.1859 34924.5)
(-91.6618 -3.22136 37708.2)
(-119.63 -10.5844 41674.6)
(-100.705 -25.1836 46323.6)
(-84.7856 -33.7505 50962.1)
(-48.1327 -50.386 54698.8)
(-22.747 -66.3576 57308.8)
(17.0798 -86.7942 58479.4)
(51.1138 -112.997 58343.1)
(106.595 -155.439 57001)
(181.157 -229.117 55432.7)
(289.691 -336.731 52830.2)
(426.286 -481.867 47817.3)
(612.312 -670.754 44320.9)
(779.584 -829.307 43433.5)
(865.255 -897.029 43206.6)
(858.408 -863.581 42972.5)
(804.412 -787.777 42635.1)
(747.202 -712.606 42240.1)
(686.847 -645.429 41823.7)
(600.511 -573.72 41392.5)
(489.653 -476.722 41014.8)
(372.155 -366.516 40906.5)
(261.881 -266.49 41649)
(161.178 -197.568 44142.7)
(93.7899 -179.391 48765.7)
(69.1148 -180.857 53262.4)
(71.2281 -182.574 53078.4)
(123.372 -168.818 43257.1)
(186.221 -164.676 32880.5)
(185.189 -31.2256 32286.8)
(186.656 222.785 38312.8)
(-27.9854 97.5902 42375.4)
(-135.103 -6.74617 49751.6)
(-179.607 -1.78919 40462.7)
(-102.35 -9.95414 32510.9)
(40.1671 41.2858 30230.7)
(173.379 92.3829 30649.6)
(204.658 125.846 29766.6)
(82.5979 98.4536 29803.8)
(-60.0092 65.3548 32165.6)
(-128.98 18.7884 36162.7)
(-147.039 -9.59528 41191.5)
(-140.317 -40.3397 46815.1)
(-118.346 -52.1853 51930.6)
(-92.8914 -67.2126 55760.7)
(-71.4411 -72.3779 58303.7)
(-55.077 -89.0818 59686.9)
(-47.17 -105.713 59945.7)
(-48.1803 -143.832 59030.4)
(-52.336 -194.335 57532.4)
(-54.1098 -274.318 57335.8)
(-47.9288 -352.824 55847.5)
(10.8339 -411.042 52012.5)
(145.151 -430.665 48523.1)
(314.735 -419.081 46283.3)
(464.178 -395.672 44738.3)
(569.05 -411.122 43724.5)
(603.491 -434.068 43232.7)
(588.978 -418.287 42349.8)
(545.216 -341.844 40951.5)
(474.752 -254.733 38973.8)
(384.724 -163.917 36668.1)
(281.98 -94.7536 35068.6)
(174.247 -60.3709 35937)
(97.9835 -78.5347 40696.8)
(54.8727 -105.574 49553.1)
(46.4198 -151.003 55232.5)
(20.5887 -144.168 50735.9)
(98.4895 -106.626 37735.9)
(185.432 102.373 31813.3)
(227.079 215.88 36238.5)
(13.7667 103.231 46274.1)
(-147.383 42.567 51750.5)
(-226.82 70.6675 45103.1)
(-215.364 70.1846 37826.9)
(-126.192 106.794 34025.2)
(44.6366 145.029 32987.4)
(168.353 172.564 31464)
(159.136 150.171 30296.3)
(-22.4878 100.267 31824.2)
(-116.274 12.0336 35949.3)
(-151.76 -47.8803 42219.6)
(-135.24 -83.1914 48647.3)
(-113.465 -94.1774 53756.6)
(-77.5548 -98.1872 57285.8)
(-56.5861 -98.5498 59383.3)
(-32.3634 -102.327 60397.4)
(-26.3698 -107.459 60488.4)
(-25.74 -121.589 59613.8)
(-49.2627 -138.885 58324.6)
(-79.2649 -163.287 58624.4)
(-143.509 -178.196 59101.4)
(-210.848 -185.714 57526.5)
(-233.276 -171.767 54983.9)
(-180.653 -157.994 52949.8)
(-94.7923 -165.852 51729)
(26.1737 -189.192 51053.2)
(176.116 -167.695 49534.1)
(312.415 -119.009 47578.8)
(386.489 -84.0857 45642.7)
(397.731 -54.6308 42446.2)
(364.798 -15.0761 37859.8)
(298.167 11.3406 33940.6)
(203.082 -17.0159 34042.9)
(127.016 -95.6902 38309.8)
(64.6375 -168.424 46598.3)
(73.2386 -211.626 53926.4)
(55.1601 -170.618 52487.5)
(111.468 -57.2489 40549.7)
(216.004 179.186 28142.8)
(249.198 216.478 30452)
(21.7833 156.148 42492.1)
(-160.858 159.048 49362.9)
(-273.1 174.68 47546.8)
(-309.058 155.669 42611.4)
(-267.894 187.75 39129.2)
(-137.209 199.716 36546.6)
(19.9491 218.938 33956.5)
(114.812 181.365 31511.6)
(7.37511 113.442 32665.5)
(-130.824 -22.5315 37199.5)
(-161.498 -96.398 44123.4)
(-150.062 -132.466 50602.6)
(-123.857 -128.723 55243.5)
(-94.5375 -129.645 58108.4)
(-75.8764 -119.657 59789.5)
(-63.5592 -122.1 60610.7)
(-63.853 -119.812 60684)
(-74.6901 -132.461 59921.2)
(-100.219 -141.733 58509)
(-126.217 -158.912 58822.3)
(-165.195 -154.22 60126)
(-214.479 -137.428 59839.5)
(-251.419 -85.7356 58501.9)
(-247.223 -23.9046 56936.3)
(-217.191 34.3012 55589.7)
(-184.865 74.1443 54511.7)
(-139.552 98.7411 53589.8)
(-44.2295 100.153 52521.6)
(96.8136 101.403 50647.6)
(228.691 80.4032 46374.4)
(300.52 78.4691 39605.8)
(288.951 65.015 33741.6)
(228.873 -10.3534 34214.9)
(177.254 -115.546 38001.6)
(117.554 -184.761 43371.9)
(104.492 -217.572 49642.9)
(96.7178 -180.228 50394.7)
(124.548 -39.2276 39554.6)
(216.349 255.989 24601.5)
(321.447 232.944 25849.4)
(75.1305 226.737 31730.8)
(-164.036 253.741 37663)
(-334.818 275.746 42655.4)
(-413.713 273.642 43749.9)
(-403.84 275.064 42464.3)
(-300.24 260.323 39934.7)
(-141.099 243.786 36514.4)
(19.6592 200.364 32999.1)
(-9.35717 101.432 33339.8)
(-122.65 -60.0915 38942.3)
(-155.777 -160.203 46904)
(-132.31 -170.532 52589.6)
(-102.786 -161.717 56134.4)
(-69.9116 -147.101 58304.1)
(-50.8267 -129.787 59546.7)
(-34.903 -115.719 60089.8)
(-37.571 -100.9 60000.5)
(-46.0468 -93.8147 59230.6)
(-81.189 -87.3782 57836.9)
(-110.366 -85.0515 58181.9)
(-154.257 -67.3346 59837.1)
(-207.602 -51.6974 60230.1)
(-261.566 -19.5802 59815.4)
(-287.156 16.8997 58984.2)
(-286.14 53.6091 57969.9)
(-254.417 80.0784 56896.6)
(-206.988 112.615 55709.6)
(-142.88 122.141 54365.3)
(-77.6003 104.713 52518.1)
(52.4298 64.2485 49310.4)
(195.965 67.1344 40896.3)
(255.54 54.7672 33528.8)
(239.48 -69.1529 35115.1)
(220.819 -199.939 39634.4)
(194.639 -287.185 43639.3)
(182.776 -307.961 44964.7)
(170.827 -217.029 40258.9)
(185.82 31.6234 29591.7)
(232.758 353.692 24199.4)
(410.953 264.259 25713.5)
(224.203 305.326 28046.8)
(-13.6969 309.631 28910.1)
(-257.335 305.875 30537)
(-437.296 297.131 34167.6)
(-505.682 291.46 37099.2)
(-467.225 266.364 38158.1)
(-336.306 236.286 37062.3)
(-153.236 193.77 34163.2)
(-86.2133 57.3678 34110.6)
(-149.562 -158.139 42218)
(-158.694 -217.046 49299.9)
(-121.847 -216.31 53753.9)
(-90.43 -196.332 56403.7)
(-61.0164 -177.473 57974.4)
(-43.5268 -151.67 58821.9)
(-34.2636 -133.732 59096.9)
(-38.653 -111.999 58851.2)
(-52.1104 -98.8258 58019.3)
(-85.6405 -83.78 56494.2)
(-114.662 -78.2016 56878.3)
(-141.315 -51.3785 58615.9)
(-174.825 -30.2209 59368.6)
(-209.554 7.7063 59412.8)
(-236.183 47.3914 59024)
(-251.192 87.1737 58321.6)
(-253.353 114.628 57387.8)
(-237.597 127.346 56216.4)
(-198.862 122.924 54729.3)
(-140.349 98.5102 52726.9)
(-76.9417 71.7509 49825)
(91.1873 54.5487 42150)
(207.44 -18.2471 32757.8)
(205.549 -143.112 33872.5)
(218.505 -280.615 36128.8)
(207.35 -338.067 35582.3)
(204.194 -288.747 32232.2)
(206.827 -94.5722 27728.9)
(244.915 193.294 26572.9)
(256.63 420.385 25287.1)
(494.601 292.531 26913.8)
(379.539 349.522 29709)
(189.399 326.872 29963.3)
(-31.0512 302.672 29336)
(-232.053 256.146 28705.2)
(-384.91 215.166 29891.1)
(-422.18 159.1 31493.1)
(-356.199 117.306 32049.7)
(-233.356 65.6259 31586.3)
(-148.507 -131.293 37222.8)
(-154.846 -262.933 45615.2)
(-130.895 -273.797 50940.2)
(-86.9182 -253.828 54186.3)
(-52.8249 -222.431 56028.8)
(-21.8414 -188.304 57017.6)
(-4.19194 -153.275 57414.7)
(6.48571 -119.435 57341.4)
(1.12339 -86.0029 56826.1)
(-9.63421 -54.6221 55845.6)
(-57.0348 -26.6242 54182.8)
(-88.811 -15.6384 54709.8)
(-120.085 7.97475 56513.7)
(-155.502 24.6573 57576)
(-192.119 49.3838 57939.6)
(-222.872 72.0579 57891.4)
(-246.064 96.5662 57499.1)
(-256.439 109.932 56825.3)
(-256.41 119.893 55832)
(-243.524 107.231 54498.7)
(-215.438 84.6298 52652)
(-173.48 27.879 50036.5)
(-106.204 -18.3004 44940.6)
(104.26 -82.0982 31311.8)
(134.02 -177.378 30066.7)
(122.648 -268.106 29661.1)
(147.457 -249.603 28224.8)
(177.227 -118.502 26639.3)
(216.883 95.7094 27076.4)
(276.063 332.375 28074)
(275.868 476.793 26359.9)
(572.719 310.059 27975.5)
(506.222 361.613 31293)
(348.717 303.17 31779.2)
(148.472 245.417 30912.4)
(-21.758 162.562 29271.5)
(-184.142 92.7738 28466.1)
(-253.468 -7.4235 29101)
(-240.018 -66.2686 29517.1)
(-177.036 -183.018 34631.7)
(-135.212 -304.214 42082.9)
(-123.16 -346.269 47981.9)
(-89.4869 -326.61 51777.2)
(-49.9537 -291.897 53911.9)
(-16.5201 -249.207 54983.2)
(8.03434 -209.873 55364.3)
(22.8849 -166.349 55256)
(29.4292 -128.609 54718.7)
(23.2369 -88.9801 53730)
(11.8499 -42.6013 51755.6)
(-41.9177 -5.92962 50190.4)