/*--------------------------------*- C++ -*----------------------------------*\
  =========                 |
  \\      /  F ield         | OpenFOAM: The Open Source CFD Toolbox
   \\    /   O peration     | Website:  https://openfoam.org
    \\  /    A nd           | Version:  11
     \\/     M anipulation  |
\*---------------------------------------------------------------------------*/
FoamFile
{
    format      ascii;
    class       volScalarField;
    location    "600";
    object      p;
}
// * * * * * * * * * * * * * * * * * * * * * * * * * * * * * * * * * * * * * //

dimensions      [0 2 -2 0 0 0 0];

internalField   nonuniform List<scalar> 
128000
(
-193823
-192694
-253443
-236484
-316879
-322563
-379484
-387641
-387520
-354903
-303737
-269112
-234211
-231684
-271401
-287435
-318785
-327416
-348845
-333910
-334629
-348004
-325344
-295206
-265806
-238994
-253598
-294995
-345584
-409010
-461932
-498373
-476013
-464549
-376505
-361874
-256779
-256007
-191226
-161037
-194926
-141755
-202026
-187112
-250477
-286642
-350256
-411170
-445248
-443228
-379092
-323946
-269938
-227071
-279978
-294189
-330028
-338863
-367156
-356099
-354794
-371354
-336301
-306364
-268072
-243523
-296711
-366139
-445254
-525624
-574766
-561407
-492320
-418900
-313579
-269675
-171561
-184004
-97699
-130965
-254657
-203753
-213098
-206553
-243249
-271138
-324207
-379886
-437616
-477178
-441497
-377016
-335675
-278495
-319491
-324197
-353007
-352511
-352928
-349814
-349499
-363572
-356003
-333677
-316228
-294782
-366307
-437587
-516251
-590504
-598733
-540589
-453911
-381365
-295906
-256220
-196899
-188106
-161427
-212899
-237732
-188233
-204475
-178471
-216922
-251713
-308856
-383432
-449674
-516616
-520086
-464447
-417123
-359045
-377440
-381322
-384780
-387839
-386068
-387786
-395280
-413032
-417448
-408748
-394996
-384651
-459304
-543630
-618910
-679251
-642372
-553641
-447631
-356115
-254214
-212197
-134680
-156033
-127693
-168722
-317863
-255966
-243921
-220619
-216353
-241464
-278947
-343001
-414436
-493240
-523681
-486966
-465486
-426845
-450265
-426435
-439537
-407278
-396714
-395094
-411222
-441112
-454163
-459994
-458965
-475509
-520839
-596550
-649184
-673448
-610661
-503470
-400424
-309439
-237683
-200384
-174500
-206018
-195443
-270575
-316659
-288007
-268890
-252723
-241130
-258275
-281588
-345579
-387645
-492786
-495844
-524518
-469605
-463753
-469163
-498277
-460282
-437756
-428622
-425648
-444847
-470808
-499253
-523171
-521266
-524024
-544411
-606014
-648436
-647510
-578137
-473971
-377053
-295250
-231875
-207560
-188788
-214077
-213718
-262819
-370513
-349865
-323371
-307936
-279159
-278848
-278816
-318607
-358431
-403240
-482715
-418421
-446195
-424622
-435720
-438956
-433438
-411038
-393056
-399492
-400804
-434388
-453190
-483110
-474064
-489817
-492473
-561001
-552109
-589472
-491439
-421103
-342400
-282813
-251994
-240252
-250028
-279590
-288837
-350195
-367182
-402515
-373461
-381697
-341652
-344333
-322996
-343479
-358637
-395130
-418470
-434413
-396049
-412023
-427814
-439645
-426768
-407973
-404732
-404334
-398281
-420232
-442474
-461417
-460178
-453218
-452165
-474225
-491551
-502888
-439590
-391526
-336708
-300322
-288198
-287995
-308969
-323164
-345684
-369911
-360147
-422387
-426555
-434529
-409935
-373558
-346026
-348288
-346262
-368824
-378870
-407964
-360810
-396028
-357523
-406278
-384512
-393911
-367060
-393606
-364205
-398134
-388915
-408831
-394522
-397529
-397366
-439875
-458732
-453530
-408680
-375833
-345599
-329607
-340316
-346685
-382283
-388491
-418333
-419539
-319955
-406926
-451536
-501646
-478360
-492988
-405534
-389723
-371916
-372452
-373499
-387560
-389962
-386790
-419872
-405646
-411867
-396975
-390315
-391873
-389310
-385662
-406108
-414999
-407248
-411099
-392632
-422610
-422526
-411320
-387107
-366692
-361203
-358268
-382573
-406455
-438908
-443376
-460232
-424557
-269826
-332247
-390985
-463482
-488106
-449992
-440002
-399772
-365448
-362254
-336899
-354414
-332616
-365820
-346287
-387174
-361027
-372052
-347382
-370141
-351887
-376252
-370452
-389494
-385257
-387861
-384695
-405487
-402389
-399668
-386046
-380557
-384509
-394354
-437304
-436875
-479623
-468096
-478649
-422601
-242611
-292880
-350293
-433673
-463866
-489376
-414601
-400375
-401093
-376262
-360270
-348741
-348584
-345745
-361670
-357694
-368800
-358835
-361418
-364205
-368867
-371610
-377517
-382268
-380101
-386492
-387094
-395344
-396902
-388004
-387883
-376420
-397609
-399148
-420549
-445344
-480355
-471458
-464425
-399508
-208166
-222117
-285639
-354069
-419827
-420107
-407974
-370516
-339518
-368625
-324184
-331412
-303939
-320763
-305012
-325993
-314118
-329692
-319848
-339944
-332417
-352316
-348663
-366567
-371552
-387455
-395256
-409147
-409912
-410065
-398726
-401358
-386703
-405155
-433503
-450969
-487176
-463534
-440955
-374881
-234139
-237396
-283792
-360037
-426084
-449971
-422607
-391160
-395844
-375701
-368992
-338726
-334986
-324839
-332098
-327003
-335693
-332653
-339435
-340177
-344107
-346850
-351785
-360545
-371881
-385912
-402649
-409724
-421537
-402789
-407506
-368283
-400589
-377692
-420705
-423132
-450365
-409909
-386414
-333404
-264331
-264720
-301985
-341048
-421543
-438949
-414037
-401836
-342964
-393758
-336528
-335556
-298845
-307203
-291150
-304606
-294181
-307313
-300150
-315258
-312069
-331677
-338866
-366743
-388841
-422371
-443647
-460424
-461006
-452598
-428163
-411622
-394917
-407216
-428290
-422238
-421449
-369726
-353332
-312749
-282794
-294928
-321363
-375454
-415582
-480939
-428820
-419312
-403506
-392623
-387632
-345556
-336763
-320634
-324909
-318362
-323583
-318119
-321779
-318342
-321485
-323825
-334025
-350017
-378603
-410958
-447293
-466123
-488393
-463688
-445302
-403566
-400467
-394335
-415431
-395575
-388773
-324982
-310276
-273917
-294967
-304360
-329602
-350728
-414829
-413878
-410767
-392772
-362725
-378893
-341707
-334811
-300763
-302911
-285743
-293165
-281318
-288377
-279201
-288894
-286170
-306032
-324594
-373667
-432896
-505963
-547327
-566721
-566201
-541401
-498373
-439312
-420397
-408065
-415915
-392288
-379722
-321345
-307889
-273297
-313023
-323147
-335962
-371564
-386974
-424719
-392983
-383238
-386368
-378484
-371384
-343501
-336527
-321289
-322109
-312433
-313605
-304805
-303412
-295433
-294524
-293448
-306255
-332844
-390004
-458031
-523179
-576398
-635171
-596432
-513616
-441631
-412071
-378509
-381354
-360191
-343131
-311329
-296676
-265945
-312856
-329887
-323797
-352709
-372607
-390630
-365150
-379012
-334501
-355543
-324742
-326490
-301589
-301994
-283196
-283412
-266362
-264666
-247298
-245580
-233585
-243355
-265969
-356389
-514114
-678070
-728279
-720198
-700138
-666588
-586964
-464405
-414516
-369213
-367922
-350373
-339479
-322051
-327822
-281930
-303620
-321057
-322943
-372229
-382631
-411370
-393436
-367924
-383619
-366767
-365536
-347698
-341879
-327325
-322446
-310833
-306478
-296009
-288318
-275687
-263092
-250313
-246722
-282284
-378844
-497508
-575000
-621409
-687253
-626529
-512797
-401379
-348460
-317314
-324975
-319770
-304038
-288062
-272643
-228940
-304967
-325058
-329053
-372770
-400096
-427100
-381908
-375255
-329550
-350206
-324954
-329743
-305054
-301467
-280831
-275798
-254580
-243502
-213061
-191978
-151850
-123357
-120026
-272229
-528309
-746651
-792606
-710612
-629213
-574558
-477221
-377975
-334733
-306759
-329657
-321369
-323258
-286326
-285071
-235413
-308398
-335626
-329835
-399760
-425442
-461597
-428096
-403073
-388399
-374163
-366960
-353975
-342218
-329649
-320571
-311487
-303687
-295201
-283838
-273898
-259252
-250639
-247911
-307901
-424477
-565994
-606786
-664717
-694339
-606952
-499824
-405999
-350789
-323465
-333916
-327437
-320151
-280719
-292543
-255585
-284558
-301263
-318314
-388879
-431185
-482670
-435938
-420325
-362753
-372830
-344218
-336531
-310931
-302692
-285318
-280901
-266818
-262318
-248330
-244599
-236623
-246891
-277087
-374813
-537328
-710497
-776754
-710013
-635208
-635850
-553032
-466850
-421172
-382441
-392222
-366455
-356300
-295542
-282269
-261988
-247086
-254132
-285756
-371462
-428983
-494015
-462443
-435708
-390970
-391990
-371305
-356841
-335928
-327257
-316123
-312396
-304568
-302162
-294291
-294202
-289680
-297634
-307877
-347108
-400633
-479467
-523870
-567720
-601772
-554756
-481027
-446681
-404606
-394836
-399305
-378597
-354950
-288023
-260773
-234996
-218949
-222144
-271017
-362126
-439171
-493060
-449092
-425211
-364487
-363869
-350017
-328986
-310178
-301269
-290331
-288298
-282148
-282717
-279797
-284510
-289600
-307239
-331992
-380242
-441603
-510849
-551095
-551642
-534637
-514495
-481255
-425968
-426286
-416731
-432839
-413510
-395317
-317548
-278948
-254314
-205854
-223085
-274741
-361943
-446831
-489388
-465316
-417233
-372248
-376125
-351700
-342166
-322745
-319272
-309436
-310805
-304698
-307296
-301658
-307470
-304914
-316733
-322273
-346556
-368328
-406335
-429915
-453172
-457970
-449982
-411108
-409107
-371458
-398023
-413923
-408211
-388823
-319031
-298515
-263000
-239051
-294961
-366679
-476463
-534908
-543554
-485988
-423163
-368057
-347511
-336748
-317597
-305094
-298349
-294340
-294481
-293942
-296244
-297227
-304230
-311095
-324419
-339083
-361632
-386523
-414459
-435910
-444787
-447653
-435782
-430334
-392379
-410819
-408411
-439207
-450861
-455445
-399597
-354047
-305442
-282605
-365002
-438400
-538199
-588804
-583820
-543548
-442288
-418406
-389076
-352681
-333481
-315201
-314921
-307349
-312956
-307989
-313046
-307087
-316230
-311896
-325287
-326108
-341065
-348448
-366298
-375963
-390998
-394053
-397108
-390094
-390190
-396435
-394979
-439983
-451595
-473807
-431195
-399287
-332316
-339413
-447898
-520747
-625497
-647501
-628479
-545572
-469706
-418182
-367804
-336423
-315475
-308284
-302729
-306235
-307014
-308686
-309255
-310482
-315285
-322114
-330861
-339755
-348482
-359342
-370194
-379710
-386380
-394058
-395541
-400020
-396998
-420646
-428683
-454180
-486404
-499807
-475216
-446983
-375634
-398895
-516805
-573704
-645073
-631814
-599019
-539146
-444054
-402350
-358880
-335080
-326270
-314589
-324701
-319582
-329827
-325799
-332633
-325687
-330125
-325698
-336674
-335581
-343894
-345014
-350256
-349485
-360804
-359173
-369350
-367206
-371057
-387340
-399914
-447292
-454390
-495502
-471315
-466790
-397925
-443525
-543832
-551150
-586988
-551569
-517053
-442557
-393086
-361896
-335805
-328890
-321814
-328411
-321562
-335563
-337019
-339747
-336527
-337057
-339826
-346371
-335298
-345816
-349743
-359276
-362427
-360682
-361011
-370360
-378944
-373066
-370339
-377754
-384958
-413525
-438939
-461437
-460907
-468360
-420799
-458075
-499468
-476520
-481041
-437160
-410518
-367777
-341331
-330254
-327079
-332077
-342075
-325323
-352359
-347486
-355033
-348757
-352149
-349287
-357730
-348782
-346686
-350361
-356753
-357996
-356425
-349372
-355218
-343690
-376167
-361468
-350911
-343885
-337324
-353889
-360453
-395110
-395318
-420871
-410001
-423928
-422999
-387465
-381234
-340563
-324288
-299356
-302332
-313508
-331331
-346742
-343031
-350341
-342251
-352296
-355880
-351736
-350568
-341129
-360104
-354808
-348233
-366266
-368552
-378743
-376934
-365270
-365357
-364262
-399801
-384745
-365466
-343033
-322970
-320149
-320626
-338420
-345047
-364975
-380800
-396891
-339099
-314028
-287602
-255352
-249419
-249088
-275212
-305391
-333541
-360816
-343562
-347466
-358378
-362636
-359709
-354171
-342992
-344809
-338468
-354220
-358650
-372367
-385206
-395064
-397936
-393942
-386673
-387673
-395092
-413276
-367044
-336638
-298122
-278718
-269640
-276372
-296128
-301708
-348982
-307474
-245930
-239487
-205408
-200843
-206390
-235947
-282138
-324535
-385071
-373686
-390744
-381572
-387924
-381734
-379798
-358988
-352596
-351768
-348615
-370629
-375880
-387460
-394775
-423173
-425104
-421195
-414169
-432769
-450150
-455677
-418011
-360678
-316866
-271221
-254008
-239982
-255363
-253273
-290116
-293953
-206394
-208614
-167082
-173690
-190963
-235643
-286396
-352765
-384002
-404552
-393370
-389438
-374145
-362352
-347757
-344079
-334765
-336306
-326461
-354338
-368758
-380842
-389200
-404152
-410207
-422816
-411267
-440864
-452461
-472838
-445056
-380618
-324592
-272272
-241088
-217396
-241178
-226675
-283867
-191510
-128077
-157808
-113223
-169591
-192547
-262485
-324995
-384264
-428276
-428559
-429083
-393758
-360829
-336378
-332786
-325269
-333023
-330199
-325415
-340685
-348337
-358387
-359356
-368509
-360607
-373952
-361244
-419635
-444339
-483431
-465740
-418562
-364445
-295564
-266195
-203228
-213974
-191108
-213376
-210413
-149522
-164977
-147683
-203906
-222355
-290316
-331489
-391466
-418121
-418467
-398953
-354838
-316604
-297823
-296348
-300935
-311631
-313723
-306537
-311493
-326002
-336036
-337464
-340821
-326305
-328274
-306377
-359879
-391884
-439967
-456396
-412901
-375701
-316470
-286865
-243669
-234201
-211865
-249878
-138213
-77507.1
-149033
-127626
-212103
-233039
-313314
-363762
-413068
-424809
-401995
-375949
-326120
-298466
-263927
-277135
-283821
-320693
-330742
-317352
-307551
-321279
-323547
-321010
-316111
-295659
-289923
-255304
-301552
-347854
-393915
-441542
-435977
-408685
-343834
-314541
-234974
-241294
-170443
-185531
-138743
-139214
-209486
-189054
-286538
-280533
-360588
-362687
-390060
-368494
-348058
-320326
-286604
-270596
-248392
-264439
-277325
-306534
-313169
-301912
-303662
-309144
-318563
-314725
-308579
-293379
-282398
-256990
-263730
-300054
-325677
-375024
-387043
-409385
-364959
-368570
-296901
-293973
-249772
-217535
-740233
-742589
-782971
-788410
-849142
-871686
-914731
-917570
-889666
-809370
-685336
-538759
-341391
-249441
-424993
-501248
-564875
-589527
-616071
-604469
-619777
-610047
-485343
-320939
-157418
-53855.8
-272417
-546027
-745096
-901735
-1.01317e+06
-1.07545e+06
-1.0731e+06
-1.05429e+06
-983127
-947257
-866774
-847862
-802054
-781649
-740909
-713068
-749478
-755276
-809694
-854888
-915967
-969177
-988376
-947278
-824049
-660369
-407995
-225926
-408445
-486470
-514944
-498080
-490739
-468241
-468187
-459269
-415523
-350688
-194657
-42489.2
-343745
-689868
-912156
-1.06954e+06
-1.1567e+06
-1.16209e+06
-1.10705e+06
-1.03582e+06
-943300
-887790
-810557
-800200
-747926
-764198
-777885
-747786
-756754
-764902
-805094
-847866
-907804
-968524
-1.02167e+06
-1.03036e+06
-935897
-770411
-516810
-344479
-504345
-538894
-528565
-458580
-382596
-317671
-301840
-386582
-463017
-460663
-376944
-183907
-424812
-806345
-1.02845e+06
-1.16952e+06
-1.20994e+06
-1.16808e+06
-1.08977e+06
-1.01322e+06
-929682
-876982
-820792
-801438
-781424
-811742
-779555
-750077
-760704
-755560
-792899
-836182
-897467
-969250
-1.03555e+06
-1.0825e+06
-1.02729e+06
-882202
-652275
-590954
-703826
-668595
-590749
-498261
-401781
-355379
-388500
-472358
-600106
-696494
-700751
-532810
-553741
-929061
-1.13343e+06
-1.2449e+06
-1.2406e+06
-1.16682e+06
-1.07562e+06
-991505
-903075
-853199
-792097
-792152
-773972
-800900
-835227
-802441
-798013
-790471
-798914
-829524
-872602
-931575
-992348
-1.05942e+06
-1.02231e+06
-912662
-754431
-803657
-892590
-821727
-699904
-588946
-522578
-513868
-551809
-631259
-743227
-869194
-941304
-870075
-716618
-985957
-1.14671e+06
-1.20924e+06
-1.18957e+06
-1.10612e+06
-1.02756e+06
-955228
-893744
-855338
-827808
-837230
-829166
-872473
-847907
-839757
-833316
-825944
-822468
-839302
-864285
-911269
-940447
-1.00218e+06
-1.01457e+06
-926952
-817218
-923895
-984520
-935366
-805803
-696048
-628648
-612869
-647808
-737406
-852424
-987923
-1.07749e+06
-1.06653e+06
-880865
-996570
-1.11992e+06
-1.16519e+06
-1.11185e+06
-1.04659e+06
-991438
-942088
-899294
-877299
-859709
-868209
-863760
-889710
-881935
-892875
-886724
-877795
-856031
-851980
-853211
-875984
-887177
-880820
-882049
-804440
-812403
-900300
-943419
-889989
-794259
-687541
-615312
-608459
-641661
-746119
-854543
-980651
-1.06535e+06
-1.09644e+06
-969646
-949250
-1.00394e+06
-1.02676e+06
-985756
-977626
-961531
-943874
-931382
-923548
-925294
-935830
-932065
-954361
-870136
-933193
-936020
-939370
-902389
-886065
-865042
-871454
-867923
-854507
-812975
-762525
-715950
-785694
-820125
-797538
-726373
-639538
-573681
-578714
-595587
-675973
-779944
-884048
-963558
-993011
-936638
-835147
-866833
-905034
-925612
-959286
-973339
-977660
-979961
-980084
-989209
-988982
-985687
-974423
-829719
-934163
-977022
-988970
-949265
-891547
-850583
-841568
-833335
-819065
-770145
-707563
-590329
-616663
-620677
-650698
-605305
-553004
-485050
-519660
-535751
-589813
-640472
-702047
-732566
-750296
-722034
-685621
-762575
-852386
-919145
-976001
-1.00736e+06
-1.02121e+06
-1.03201e+06
-1.03365e+06
-1.05147e+06
-1.04258e+06
-1.03399e+06
-993576
-739665
-875294
-964117
-1.02215e+06
-1.0028e+06
-947386
-841822
-811159
-801339
-788001
-750488
-687559
-591287
-513826
-511846
-508856
-498384
-440996
-401141
-443740
-499214
-513804
-541595
-566679
-571893
-570348
-558100
-649807
-762909
-868014
-948410
-1.00562e+06
-1.04014e+06
-1.04893e+06
-1.05356e+06
-1.06122e+06
-1.07722e+06
-1.0588e+06
-1.03759e+06
-965950
-616099
-740378
-846882
-935327
-949331
-915190
-807059
-740973
-723428
-721020
-694535
-658758
-553093
-460104
-349840
-325449
-288473
-260441
-257437
-365902
-419421
-438467
-420327
-439664
-456191
-501174
-579726
-702109
-814594
-915494
-986891
-1.03447e+06
-1.05362e+06
-1.04843e+06
-1.03878e+06
-1.03769e+06
-1.02423e+06
-1.00878e+06
-995699
-911088
-479425
-584184
-692883
-804279
-847966
-858439
-757341
-670501
-652682
-640361
-641343
-636122
-586303
-493322
-375908
-245184
-168947
-143151
-223305
-347030
-398340
-393304
-385723
-418304
-478652
-567392
-664051
-772128
-869303
-945819
-1.00349e+06
-1.02463e+06
-1.02431e+06
-980586
-932298
-913590
-914080
-919965
-912270
-823861
-298766
-318222
-422067
-576353
-725841
-805431
-798693
-681556
-534938
-530115
-510310
-555806
-541276
-507106
-412855
-313128
-201033
-185340
-253754
-356060
-378455
-385493
-394856
-463502
-540597
-636033
-728673
-825005
-904342
-967555
-998102
-1.00005e+06
-935835
-858363
-836067
-807785
-804062
-795164
-792435
-709202
-392837
-366663
-462138
-671401
-853440
-939707
-897101
-747875
-581643
-458153
-413326
-453600
-499501
-500792
-471160
-409236
-341291
-312889
-349932
-400190
-418777
-423186
-455748
-515919
-589639
-672354
-757876
-837002
-910103
-948067
-968649
-920331
-846135
-795256
-806638
-695877
-605315
-564270
-601200
-551658
-488528
-472926
-531270
-669954
-845344
-934590
-894358
-764781
-575846
-456873
-292487
-314567
-377854
-437497
-439090
-428383
-388580
-380085
-387458
-422634
-433523
-450299
-477410
-539631
-607637
-691071
-770872
-850264
-912494
-948550
-937355
-881792
-755954
-789994
-850237
-768053
-534235
-312481
-324522
-370197
-528995
-507607
-535563
-613847
-754099
-870172
-833782
-739514
-610007
-458268
-279948
-189755
-277251
-369985
-427366
-439208
-438358
-428738
-436682
-447894
-449613
-446864
-464903
-502774
-559745
-634972
-725378
-813332
-895090
-920640
-900922
-815428
-690392
-739002
-840494
-808933
-609639
-256190
-101570
-125901
-542903
-482205
-472703
-503086
-624370
-716903
-728416
-660318
-553015
-438667
-236605
-109810
-154919
-284601
-360169
-406811
-411424
-417037
-412272
-418808
-409574
-407105
-411356
-446376
-505063
-607360
-717687
-823827
-905290
-931693
-878397
-755087
-632049
-678974
-783502
-770771
-602175
-268322
-81946.9
56177.6
-544850
-442674
-384974
-412284
-526339
-638887
-631365
-584572
-514076
-396870
-228580
-97340.5
-142898
-256972
-352364
-400554
-424237
-423826
-417330
-401740
-376307
-335356
-297843
-281687
-327939
-461197
-627503
-782185
-916940
-925904
-836355
-678498
-580844
-595283
-679941
-661235
-492227
-221922
-186096
-7510.66
-523631
-393369
-289131
-321437
-476608
-568616
-564944
-527495
-441809
-362354
-234447
-185295
-208563
-283369
-339999
-384931
-391380
-385070
-355896
-340232
-291208
-212431
-130394
-115125
-253406
-523376
-711751
-826633
-905462
-914478
-818244
-647322
-560916
-556506
-624595
-593768
-316606
-168959
-358512
-222069
-507187
-359888
-241874
-326437
-490152
-577791
-578097
-524404
-498671
-421998
-354709
-308577
-307224
-331527
-373272
-402964
-415592
-403846
-374084
-336897
-263292
-94727.7
118713
194667
-7363.44
-332523
-572944
-730383
-857867
-837811
-716103
-579030
-514870
-516950
-570213
-498819
-151177
-33819.7
-309007
-322473
-558653
-394137
-272424
-388756
-549507
-644319
-636916
-574596
-489050
-449009
-369416
-324104
-299111
-325183
-353864
-383866
-376120
-348956
-291841
-247967
-86471.5
259757
525432
283578
-216109
-597848
-761827
-778316
-765175
-728367
-627936
-520672
-483234
-508535
-581089
-528160
-267677
-23946.8
-231378
-303195
-515740
-388603
-347848
-508805
-646427
-764528
-768255
-679912
-577727
-473363
-378619
-312284
-301374
-331822
-372297
-399094
-404330
-386978
-349766
-316642
-234707
-40196.3
194254
237444
-12434.8
-357554
-565007
-727674
-802435
-734613
-620002
-508486
-472016
-528118
-632415
-652015
-441855
-137586
-208479
-263298
-323536
-312352
-387143
-621277
-795004
-909410
-888310
-787457
-620853
-496582
-357641
-294597
-296417
-342634
-379937
-403939
-400116
-386575
-357629
-342461
-299358
-213902
-120825
-101781
-253866
-546303
-764468
-818308
-769273
-781796
-685918
-558688
-534156
-629399
-765916
-791959
-593988
-220668
-169099
-130001
-81696.4
-164885
-326162
-671311
-904634
-1.03423e+06
-1.01369e+06
-892976
-685838
-533110
-393991
-348025
-371035
-418211
-448710
-462853
-457919
-447305
-429809
-426149
-407889
-371395
-330775
-321654
-368038
-511809
-664835
-795176
-869793
-836780
-700221
-564507
-544651
-704159
-846342
-864583
-685578
-290466
-106225
7195.63
88785.1
63959.3
-147247
-583729
-915100
-1.07713e+06
-1.06634e+06
-950696
-705143
-529821
-415942
-406232
-436458
-470937
-485029
-487307
-475674
-466140
-458268
-466073
-466520
-465580
-472652
-507409
-568662
-669008
-771875
-845084
-879886
-873035
-789882
-604793
-593096
-770243
-903736
-881707
-654347
-254971
-72831.8
-89752.5
7316.94
17988.3
-69725.5
-347128
-700299
-948334
-1.02825e+06
-943938
-719069
-539368
-477283
-500593
-530261
-550297
-546680
-535976
-514696
-501944
-493561
-507206
-510848
-516137
-529603
-568794
-617808
-692067
-765467
-837231
-879992
-883329
-817364
-693887
-602212
-760989
-831564
-737430
-491044
-245146
-253722
-300564
-320984
-431416
-525374
-640718
-733047
-815881
-876300
-856438
-690002
-549332
-552622
-578771
-596889
-594303
-573880
-546132
-515715
-495514
-489447
-509603
-526652
-536632
-566472
-615631
-673501
-741161
-807381
-864233
-906032
-916954
-893389
-784615
-682353
-741630
-753698
-677046
-605091
-561158
-552822
-496698
-574790
-731921
-850210
-961807
-1.00819e+06
-995260
-957998
-828887
-724120
-664819
-664576
-676474
-667572
-645030
-601767
-558093
-508522
-475375
-450241
-483831
-508084
-523970
-550497
-600073
-651064
-714670
-775056
-838298
-887483
-922447
-926507
-895133
-825140
-769737
-786109
-785784
-799794
-776824
-744366
-648019
-764084
-936041
-1.05181e+06
-1.14828e+06
-1.1542e+06
-1.10912e+06
-1.04611e+06
-878430
-783643
-746381
-741243
-730178
-701829
-652736
-593322
-524809
-457565
-399638
-375003
-426819
-473716
-496773
-532479
-578819
-630903
-689262
-750717
-813575
-875046
-925043
-959295
-964106
-951672
-955052
-895883
-909137
-927730
-920879
-881111
-774899
-905889
-1.06884e+06
-1.15865e+06
-1.21669e+06
-1.20015e+06
-1.14321e+06
-1.03557e+06
-905569
-846531
-818558
-800888
-771438
-715579
-652881
-569422
-491690
-411809
-372429
-361604
-422986
-451469
-469311
-495088
-530050
-567432
-617052
-671397
-742782
-809672
-881947
-932354
-966217
-980355
-987309
-1.00602e+06
-1.01604e+06
-1.01906e+06
-997713
-964318
-862920
-997971
-1.12546e+06
-1.16537e+06
-1.19393e+06
-1.15223e+06
-1.0843e+06
-983372
-914276
-876542
-850698
-822467
-770610
-704634
-620116
-545144
-468832
-427352
-406034
-423375
-458347
-475504
-472469
-494511
-511036
-535055
-558686
-589578
-654028
-736610
-829169
-897224
-948172
-980681
-994334
-1.01448e+06
-1.03624e+06
-1.05482e+06
-1.03665e+06
-1.00739e+06
-926065
-1.0325e+06
-1.09821e+06
-1.10151e+06
-1.10032e+06
-1.05315e+06
-1.00317e+06
-942127
-904932
-882815
-859186
-820801
-762678
-675097
-619083
-552347
-517259
-492768
-491140
-500351
-520345
-517862
-505734
-504414
-516917
-537315
-555762
-560102
-574597
-619961
-747548
-827921
-892018
-934088
-953322
-973296
-982881
-1.00497e+06
-996587
-988277
-943833
-1.01047e+06
-1.02742e+06
-1.01148e+06
-1.00085e+06
-961052
-929672
-895864
-884458
-874264
-853042
-808526
-731761
-671293
-643350
-615179
-582083
-552851
-540273
-537620
-560017
-530873
-506299
-519139
-545041
-594110
-640026
-668405
-669572
-607051
-701677
-779044
-845888
-889972
-911194
-925578
-932320
-942962
-941228
-939938
-928499
-972792
-941650
-924925
-903222
-874548
-860120
-851603
-857701
-854918
-830276
-784559
-707171
-722246
-743440
-720473
-665334
-606868
-563093
-556173
-544823
-520096
-504411
-530310
-597805
-690072
-775337
-822537
-799024
-699015
-729279
-775670
-807276
-843868
-857565
-864962
-867455
-872311
-880414
-877637
-896587
-893446
-849634
-840576
-816297
-809467
-810867
-827380
-848598
-855159
-857830
-821183
-759012
-759604
-814577
-796807
-729055
-634293
-564163
-542624
-530323
-520591
-512165
-545363
-631514
-764784
-868033
-913783
-855989
-739977
-804135
-840623
-847803
-846067
-844119
-830648
-825242
-817430
-824392
-821591
-843990
-853051
-792706
-787954
-762867
-769147
-785046
-817931
-848977
-877843
-872287
-820379
-757350
-694661
-740407
-748513
-669110
-569834
-491600
-445061
-430426
-450742
-451749
-503412
-601942
-722360
-860625
-899781
-804948
-733527
-825861
-886305
-889787
-866566
-842834
-814744
-795158
-778387
-788698
-781313
-817572
-771251
-723830
-734460
-712501
-751544
-778000
-832192
-877238
-909896
-901532
-829890
-760864
-610410
-559316
-591759
-571348
-515700
-460848
-395696
-327191
-311974
-340661
-443422
-557655
-662592
-735915
-757007
-651817
-699449
-825690
-910260
-931365
-904258
-869324
-822425
-796182
-753965
-754525
-742285
-761533
-760487
-716944
-723171
-719816
-763420
-791521
-847530
-883562
-914909
-893645
-830665
-729961
-544237
-358555
-363011
-402773
-421051
-399407
-347381
-286249
-277874
-346332
-452406
-546309
-619910
-630075
-597728
-482056
-628201
-769520
-872621
-922618
-906358
-877778
-832445
-802371
-767607
-755580
-741865
-767306
-709827
-671857
-709004
-706425
-765882
-794722
-855398
-892243
-910849
-881132
-807802
-701746
-534925
-299079
-190707
-266659
-343975
-429743
-446229
-387966
-336350
-391236
-468062
-533311
-575077
-573811
-516051
-391461
-551420
-696421
-802984
-883078
-903329
-889074
-843785
-814666
-760740
-756114
-716808
-727216
-704383
-702119
-743105
-741873
-806198
-816623
-867119
-864648
-856545
-799839
-721553
-615194
-474238
-304734
-120364
-123618
-266307
-460254
-558034
-543935
-471467
-467393
-512126
-563472
-579493
-563989
-523159
-394221
-488005
-606961
-699782
-787988
-835118
-865583
-844925
-840625
-794162
-785558
-757817
-741408
-742188
-744145
-781831
-780275
-829532
-838782
-866030
-855414
-818681
-739638
-632778
-534281
-415594
-366465
-476336
-485626
-522778
-532626
-550983
-528699
-533818
-534863
-461532
-377442
-316283
-242057
-356868
-516192
-656431
-795045
-907661
-980624
-995995
-996241
-945877
-927877
-863396
-855864
-816002
-798443
-740848
-713065
-747000
-747094
-791286
-823701
-870092
-908779
-916737
-872355
-759735
-643881
-485522
-362024
-470424
-480447
-497642
-488670
-492935
-474306
-474498
-466170
-424741
-392467
-338898
-260997
-447609
-655511
-816351
-962523
-1.056e+06
-1.07479e+06
-1.03719e+06
-984410
-910988
-872635
-810569
-809874
-763034
-781757
-775094
-744981
-751329
-752977
-782826
-812233
-855780
-898798
-935333
-937084
-851611
-737900
-585032
-462739
-541563
-527690
-526638
-488464
-449648
-418127
-407062
-452168
-477966
-464484
-457962
-381106
-542704
-770484
-920137
-1.05219e+06
-1.10216e+06
-1.07669e+06
-1.01836e+06
-961748
-898280
-862848
-821294
-811822
-796737
-829703
-769336
-741106
-748201
-737018
-765020
-796808
-844432
-899863
-949220
-984968
-942972
-848499
-697654
-633621
-670420
-624061
-579841
-529329
-471448
-446637
-470130
-519279
-590269
-638698
-663581
-618335
-663069
-911129
-1.03717e+06
-1.13947e+06
-1.14214e+06
-1.08459e+06
-1.01132e+06
-944161
-872804
-837592
-789743
-798575
-785831
-813211
-813718
-783163
-774905
-762283
-764179
-786329
-819909
-867791
-914070
-973453
-943637
-881107
-767982
-768803
-791291
-734847
-663076
-590310
-543908
-538466
-567200
-627086
-698821
-768117
-816858
-829630
-776194
-980683
-1.07475e+06
-1.12666e+06
-1.11284e+06
-1.03954e+06
-973963
-913004
-863236
-835995
-818337
-834976
-831362
-872892
-813960
-808272
-797348
-786774
-779867
-792009
-811738
-852916
-878443
-934529
-951625
-902129
-800925
-836236
-846966
-818293
-732521
-657720
-607668
-595313
-622751
-689932
-771305
-860049
-913140
-941200
-864593
-991400
-1.07137e+06
-1.10655e+06
-1.06087e+06
-1.0009e+06
-948473
-902979
-866419
-851062
-840038
-853473
-852408
-875246
-833964
-847945
-835617
-826485
-805785
-801467
-801233
-821353
-834346
-836152
-853887
-790538
-773458
-799015
-809033
-772401
-711268
-638744
-588750
-588252
-612360
-688440
-763749
-850383
-897990
-934146
-886710
-931142
-980159
-1.00282e+06
-963129
-946860
-923768
-903744
-892232
-886947
-891104
-903294
-903103
-920547
-811795
-876056
-869517
-874200
-844294
-833265
-814165
-819094
-817599
-813846
-793010
-759066
-691986
-721608
-729463
-709419
-657978
-598811
-556026
-564831
-576482
-637647
-713100
-786690
-837718
-859855
-850471
-825234
-877929
-907030
-913740
-929292
-931058
-929846
-930008
-929534
-937359
-936548
-938181
-922280
-766836
-868963
-897396
-910749
-881109
-839833
-805983
-795351
-782963
-770280
-736251
-701331
-600353
-613685
-590484
-604904
-563981
-532033
-485173
-517609
-526945
-576159
-615180
-665149
-688183
-708236
-708007
-716078
-795495
-854364
-895933
-932761
-952493
-961905
-969877
-969571
-981716
-970954
-969429
-924017
-683181
-811096
-882630
-937103
-930168
-896570
-809892
-780133
-758880
-737881
-705578
-665208
-600315
-547863
-540753
-517905
-499939
-458225
-430805
-458001
-493570
-513808
-553436