/*--------------------------------*- C++ -*----------------------------------*\
  =========                 |
  \\      /  F ield         | OpenFOAM: The Open Source CFD Toolbox
   \\    /   O peration     | Website:  https://openfoam.org
    \\  /    A nd           | Version:  11
     \\/     M anipulation  |
\*---------------------------------------------------------------------------*/
FoamFile
{
    format      ascii;
    class       surfaceScalarField;
    location    "600";
    object      phi;
}
// * * * * * * * * * * * * * * * * * * * * * * * * * * * * * * * * * * * * * //

dimensions      [0 3 -1 0 0 0 0];

internalField   nonuniform List<scalar> 
376000
(
-0.0019293
-3.76309e-07
2.28806
0.100647
-0.108188
5.71891
0.176155
-0.0826483
8.52485
0.328961
-0.163003
11.7747
0.515569
-0.197176
15.1384
0.715136
-0.212676
18.3581
0.907743
-0.206004
21.3772
1.04781
-0.155555
23.9505
1.09047
-0.0603038
25.8471
1.02109
0.0493786
27.1591
0.883272
0.115164
27.9319
0.675186
0.186876
28.1336
0.329837
0.366679
31.6857
-0.00482435
0.381575
47.8974
-0.119989
0.114723
57.7374
-0.0778815
-0.0457236
64.2543
0.069265
-0.155492
69.275
0.233461
-0.174452
70.6664
0.271595
-0.051942
64.911
-0.0052218
0.259449
56.0536
-0.374987
0.342845
53.4831
-0.464616
0.066122
62.4659
-0.381266
-0.0857143
69.531
-0.315616
-0.0478818
68.6003
-0.380058
0.106679
60.2338
-0.632324
0.33012
46.9851
-0.953938
0.342454
33.6018
-1.19629
0.215163
31.1068
-1.3627
0.138423
31.212
-1.45747
0.0708731
30.6613
-1.45772
-0.0200631
29.4902
-1.34212
-0.132088
27.8175
-1.14235
-0.214762
25.4375
-0.904802
-0.250489
22.5138
-0.658647
-0.25978
19.2303
-0.441303
-0.228611
15.752
-0.24894
-0.203669
12.2348
-0.150559
-0.106842
8.73854
-0.0321259
-0.124764
5.79014
-0.0357543
2.68473
-0.104513
0.0989782
5.70799
-0.110411
-0.112139
8.96444
-0.0342621
-0.170574
12.4519
0.0619864
-0.274945
16.4061
0.246902
-0.39895
20.5885
0.46868
-0.453386
24.4046
0.729509
-0.486439
28.0087
0.987846
-0.433948
31.0367
1.17148
-0.26596
33.0952
1.1778
0.0194277
34.0341
1.00332
0.261774
34.2066
0.671832
0.489435
33.4024
0.272726
0.79296
36.7025
-0.0381648
0.754046
58.7303
-0.233419
0.315813
73.752
-0.31754
0.0368595
80.1498
-0.31096
-0.158755
83.9948
-0.277669
-0.199347
85.9989
-0.182679
-0.132579
82.5598
-0.04363
0.13836
65.4598
0.144162
0.171492
60.6156
0.26197
-0.0306238
77.9488
0.215092
-0.0246318
84.3167
0.0817735
0.0926668
84.5822
-0.135414
0.352591
79.6765
-0.447545
0.738657
62.1787
-0.891225
0.822262
40.039
-1.29507
0.584391
36.9739
-1.52811
0.339136
38.1358
-1.59465
0.111622
38.1917
-1.47988
-0.15573
37.3159
-1.22868
-0.401773
35.5501
-0.92848
-0.533729
32.9422
-0.626202
-0.571761
29.6145
-0.361027
-0.544796
25.747
-0.140024
-0.467694
21.595
-0.0120684
-0.349267
17.287
0.0835633
-0.216534
12.8898
0.105421
-0.158559
9.24384
0.0623098
5.81914
-0.0775968
0.169509
8.48612
-0.162427
-0.0389854
12.4318
-0.167984
-0.179992
16.6332
-0.124104
-0.337313
21.0113
-0.043024
-0.500423
25.5199
0.100645
-0.619776
29.8966
0.303186
-0.712636
33.9595
0.553869
-0.708813
37.2256
0.823517
-0.562062
39.0224
0.952421
-0.138274
38.99
0.869836
0.313392
38.2594
0.612261
0.717411
36.8239
0.25223
1.19008
41.1875
-0.0891278
1.15051
66.3362
-0.317747
0.545524
79.4479
-0.409992
0.128218
83.7997
-0.443361
-0.12055
86.8881
-0.399315
-0.227891
92.1346
-0.305741
-0.201108
98.346
0.0176004
-0.146309
99.1209
0.414162
-0.175699
93.2282
0.525337
-0.114602
96.7588
0.447739
0.0616902
97.3202
0.251416
0.293378
94.7321
-0.0074713
0.623256
89.2267
-0.293857
1.11047
74.0751
-0.696561
1.29158
46.5842
-1.058
0.915434
40.3699
-1.22296
0.471621
41.9747
-1.21238
0.0755945
42.6601
-1.01614
-0.373208
42.3168
-0.731096
-0.707881
41.3331
-0.462116
-0.825042
39.0784
-0.226664
-0.830182
35.7186
-0.0513194
-0.743448
31.4891
0.0570455
-0.598071
26.7919
0.12434
-0.437101
21.9938
0.140704
-0.250357
17.3119
0.0711703
-0.103387
12.8795
0.124206
8.57406
-0.158089
0.317492
11.7206
-0.269432
0.0567213
16.3641
-0.327684
-0.140274
20.9968
-0.336739
-0.351031
25.7873
-0.283173
-0.578235
30.6315
-0.194405
-0.734189
35.2748
-0.0556448
-0.877459
39.6083
0.122072
-0.911483
43.0844
0.37611
-0.841698
44.7422
0.603583
-0.396606
42.8206
0.614863
0.274238
40.8184
0.44222
0.869089
39.302
0.219414
1.45813
45.6446
-0.069304
1.45852
68.5946
-0.389309
0.846303
75.3551
-0.533106
0.26653
73.8593
-0.514686
-0.130714
74.042
-0.434279
-0.284754
76.8328
-0.3077
-0.287199
80.9665
-0.00342145
-0.399339
79.7553
0.327662
-0.458346
70.891
0.46761
-0.216206
74.6631
0.48435
0.0557595
79.0037
0.380376
0.384193
82.4484
0.16172
0.819272
84.4947
-0.0756889
1.3766
80.4562
-0.367199
1.67475
54.7233
-0.654502
1.1894
42.7824
-0.799091
0.590989
43.8872
-0.745129
0.00189567
44.9639
-0.506981
-0.630711
45.6647
-0.260231
-0.974261
46.3775
-0.0566087
-1.05181
44.7079
0.115245
-1.02762
41.4256
0.224766
-0.880262
36.9375
0.301987
-0.701493
32.05
0.31989
-0.48109
26.9611
0.262635
-0.215079
21.8874
0.164853
-0.0245591
16.9209
0.275336
11.9954
-0.185836
0.493037
15.0377
-0.38315
0.23756
20.4916
-0.480822
-0.0628303
25.4311
-0.553697
-0.302128
30.5627
-0.5663
-0.592142
35.7238
-0.526525
-0.801535
40.7084
-0.447345
-0.984665
45.2685
-0.329626
-1.05615
48.8137
-0.16363
-1.03245
50.5892
0.145025
-0.735842
48.5339
0.347613
0.0545318
41.7564
0.311232
0.895805
41.2806
0.278977
1.5334
49.8029
0.178325
1.54946
67.8621
-0.0854542
1.07699
71.5312
-0.381939
0.538754
64.0933
-0.53638
0.0364411
65.1554
-0.487935
-0.311928
64.1629
-0.321823
-0.427359
64.9941
-0.0816204
-0.618058
63.5178
0.134581
-0.654372
60.2284
0.291038
-0.352772
60.1576
0.361474
-0.0104462
63.1988
0.297582
0.425481
69.7462
0.122091
0.952992
76.9791
-0.0231392
1.50153
80.6361
-0.122638
1.85165
62.6334
-0.272073
1.34911
45.5048
-0.311759
0.618191
44.168
-0.11778
-0.198864
43.8765
0.118871
-0.884221
49.2276
0.278167
-1.15363
51.3771
0.410402
-1.20914
50.2067
0.498007
-1.14353
47.0014
0.544746
-0.956791
42.4539
0.547695
-0.733704
37.2759
0.475804
-0.437058
31.8484
0.389032
-0.152076
26.4182
0.20787
0.135689
21.2386
0.468857
15.4933
-0.198547
0.678701
18.1865
-0.430019
0.450521
24.192
-0.591787
0.0764683
29.6614
-0.701662
-0.217505
35.0779
-0.765049
-0.556045
40.5644
-0.777109
-0.817179
45.987
-0.755562
-1.03403
51.0361
-0.687692
-1.1494
55.0545
-0.602935
-1.14026
57.0797
-0.364298
-0.9897
55.9036
-0.00191527
-0.352526
46.1842
0.165197
0.733649
43.5858
0.306972
1.41548
53.1573
0.440483
1.38453
65.8468
0.433751
1.03684
68.1252
0.334224
0.611588
63.7538
0.0669847
0.292247
59.1941
-0.221009
-0.0208465
59.7241
-0.289765
-0.34732
63.1989
-0.263107
-0.632562
63.9515
-0.284649
-0.617647
60.7453
-0.288035
-0.344153
58.6004
-0.253393
-0.0503284
61.0459
-0.228865
0.375598
67.1782
-0.198773
0.878522
74.0869
-0.111776
1.36769
78.2057
0.0475888
1.72826
68.2043
0.104401
1.31567
49.8359
0.235134
0.483796
45.3062
0.487149
-0.467182
47.7959
0.628969
-1.03583
54.5389
0.714009
-1.25648
57.1279
0.770729
-1.29065
56.2289
0.789218
-1.19143
52.8482
0.772607
-0.971964
47.9112
0.712157
-0.70487
42.2736
0.607535
-0.363048
36.4586
0.460604
-0.032236
30.6998
0.236711
0.335536
25.0357
0.687513
18.7891
-0.184799
0.85049
21.1059
-0.454925
0.70174
27.691
-0.677059
0.275654
33.6129
-0.833994
-0.0858045
39.2337
-0.940025
-0.477033
44.9103
-0.987595
-0.796735
50.8082
-1.00103
-1.04809
56.6121
-0.982812
-1.19301
61.5961
-0.921965
-1.22276
64.8769
-0.817279
-1.10673
65.5031
-0.406366
-0.75507
62.0836
0.134597
0.195359
46.126
0.42187
1.12676
54.6186
0.635666
1.12573
62.4194
0.749268
0.871964
64.0917
0.734607
0.590524
62.1356
0.608271
0.400942
59.8544
0.187116
0.399802
59.0362
-0.249885
0.0987189
64.5367
-0.433505
-0.437462
67.3322
-0.637621
-0.406644
62.941
-0.83015
-0.161973
60.0781
-0.844593
-0.0589454
62.1622
-0.709938
0.20368
65.8967
-0.511656
0.624922
70.5325
-0.243813
1.0357
73.6908
0.0872448
1.37702
69.3718
0.352602
1.0703
54.2776
0.682973
0.143508
47.9326
0.950862
-0.727259
57.5519
1.04548
-1.13531
63.2825
1.08899
-1.31667
64.9428
1.08454
-1.31197
63.1497
1.04728
-1.18521
58.9117
0.977743
-0.935539
53.1814
0.875678
-0.636043
46.8921
0.720526
-0.239567
40.7277
0.518621
0.141111
34.8025
0.247111
0.581923
28.6942
0.916737
21.9182
-0.124619
0.959802
23.5188
-0.384047
0.941766
30.5394
-0.65757
0.525944
36.6642
-0.854569
0.087882
42.4599
-0.990928
-0.365702
48.1235
-1.0848
-0.726319
54.4973
-1.13326
-1.02383
61.3015
-1.14841
-1.20056
67.5625
-1.12487
-1.2672
72.3811
-1.05548
-1.19091
74.7976
-0.847052
-0.968743
73.8276
-0.173416
-0.472605
68.188
0.526562
0.425659
56.518
0.816086
0.810632
60.4617
0.948459
0.711976
61.8278
0.890019
0.631034
61.5532
0.693779
0.589934
60.8811
0.422863
0.676721
61.0831
0.0383847
0.506767
66.3694
-0.280236
-0.102852
72.9094
-0.468449
-0.200058
69.398
-0.724084
0.102033
63.0205
-0.945328
0.152764
62.4153
-0.973135
0.20519
63.9123
-0.801348
0.407049
66.2885
-0.478401
0.652788
68.0768
-0.0225924
0.871249
66.6281
0.568164
0.488534
57.2119
1.06244
-0.343303
62.9638
1.27224
-0.931831
70.7535
1.32553
-1.1972
74.113
1.30815
-1.31915
73.7457
1.24821
-1.28017
70.3034
1.15979
-1.12955
64.6272
1.04712
-0.857369
57.6761
0.900464
-0.523982
50.5077
0.724909
-0.0971147
43.9745
0.507011
0.328055
37.7409
0.233753
0.828508
31.6231
1.13042
24.6753
-0.0227208
0.965425
25.2048
-0.184181
1.08154
32.3052
-0.460574
0.776552
37.9843
-0.746837
0.34958
43.564
-0.953344
-0.180534
49.4745
-1.05883
-0.640523
56.0946
-1.14362
-0.959059
64.2554
-1.19808
-1.16556
72.0651
-1.2139
-1.27163
78.8567
-1.17941
-1.24231
83.5771
-1.08875
-1.06994
85.231
-0.77893
-0.779475
83.298
-0.033255
-0.297691
75.9161
0.549077
0.246859
64.9133
0.717553
0.542688
64.4949
0.710303
0.638839
63.9513
0.530554
0.772043
63.3385
0.362291
0.861328
64.0661
0.280646
0.617191
70.1518
0.0372673
0.162598
76.909
-0.156056
0.00674779
78.0698
-0.290454
0.255367
71.6282
-0.510963
0.380149
67.5399
-0.630634
0.327251
67.394
-0.558632
0.32892
67.4352
-0.271121
0.352699
67.6365
0.334164
0.258597
67.3855
1.03776
-0.182414
72.0741
1.39491
-0.682386
81.2117
1.48437
-1.02089
85.079
1.46919
-1.19653
85.2094
1.39673
-1.27149
82.2472
1.29514
-1.20996
76.7011
1.16713
-1.03618
69.1779
1.01803
-0.743567
60.6719
0.859592
-0.400812
52.4492
0.661585
0.0665328
45.6915
0.435813
0.52033
39.389
0.193785
1.04321
33.7113
1.30393
26.9731
0.0799267
0.865985
26.4036
0.10839
1.02961
33.0022
0.00312497
0.854659
37.5997
-0.223029
0.548182
40.7811
-0.574448
0.141009
46.1495
-0.877384
-0.345688
54.3094
-1.01911
-0.827044
64.6372
-1.1121
-1.08321
74.1369
-1.17435
-1.22444
83.2827
-1.18532
-1.24621
90.6489
-1.15404
-1.113
95.2202
-1.05489
-0.881177
96.2707
-0.778507
-0.562704
93.3894
-0.283443
-0.217446
85.5651
0.0925511
0.204802
74.5808
0.236339
0.521496
70.0081
0.248274
0.784541
67.8746
0.287225
0.860071
69.5225
0.377755
0.574568
77.7341
0.314323
0.260222
85.6702
0.165615
0.172562
89.366
0.12599
0.316121
84.9859
0.146889
0.386688
79.3647
0.183557
0.318349
79.216
0.318263
0.223061
80.1489
0.644355
0.0623901
82.0958
1.12297
-0.180946
88.8135
1.44923
-0.489277
95.2299
1.55181
-0.782128
97.925
1.53097
-1.01115
97.6949
1.4471
-1.13478
94.7194
1.32656
-1.18095
89.2255
1.18304
-1.10061
81.4661
1.01233
-0.901656
71.7516
0.830381
-0.596785
61.252
0.61218
-0.216798
51.5967
0.438018
0.201014
43.5247
0.30093
0.622284
38.6639
0.133042
1.18374
34.7913
1.41527
28.7428
0.127839
0.716455
27.0187
0.3204
0.809212
32.9062
0.42686
0.717736
36.6404
0.440361
0.508172
38.9411
0.272047
0.29295
40.2584
-0.142776
0.0377442
41.8278
-0.609683
-0.351876
61.3186
-0.867199
-0.823083
72.7003
-0.996026
-1.10341
84.7009
-1.05048
-1.20183
94.9179
-1.06362
-1.11277
102.786
-1.043
-0.909524
107.33
-0.962375
-0.639952
108.148
-0.797035
-0.358282
104.749
-0.49255
-0.0519246
95.667
-0.202759
0.293372
86.1857
0.014278
0.628055
79.6836
0.249988
0.695344
82.6548
0.406299
0.480775
92.6946
0.406733
0.295061
98.0305
0.377013
0.222053
99.7458
0.419798
0.299943
98.8619
0.567564
0.276383
97.636
0.749074
0.177603
98.8768
0.979298
0.0329972
101.554
1.23244
-0.157906
107.353
1.41282
-0.344839
110.964
1.49918
-0.572857
112.065
1.49326
-0.785633
110.927
1.41657
-0.953842
107.569
1.29334
-1.03885
102.015
1.13861
-1.05889
94.2652
0.963485
-0.960334
84.2598
0.716381
-0.690457
71.8931
0.386548
-0.294913
58.6598
0.198925
-0.0740048
44.7487
0.198225
0.176496
38.9678
0.168
0.623312
37.1405
0.0784639
1.24775
35.3424
1.4713
30.047
0.238949
0.462091
27.3636
0.58003
0.446538
32.0685
0.851529
0.426622
35.4301
1.02673
0.324077
38.1673
1.06789
0.254254
40.7941
0.931356
0.185193
43.6328
0.379337
0.208366
46.4924
-0.338603
-0.0850441
65.705
-0.689706
-0.745528
82.6445
-0.80606
-1.08436
95.7082
-0.84276
-1.08142
107.103
-0.851414
-0.910414
115.209
-0.827568
-0.668777
119.946
-0.760491
-0.419743
121.673
-0.635035
-0.15078
119.839
-0.408053
0.12233
112.099
-0.0980497
0.397005
104.665
0.197828
0.480807
106.288
0.359538
0.374865
113.088
0.399965
0.282392
113.139
0.436355
0.208623
113.84
0.552196
0.214269
115.122
0.721665
0.143773
117.827
0.903318
0.0291938
120.697
1.07596
-0.117041
124.542
1.20665
-0.277853
126.487
1.30498
-0.443011
126.287
1.3453
-0.62211
124.244
1.31087
-0.768011
120.436
1.21328
-0.88039
114.796
1.05733
-0.912401
107.263
0.871333
-0.906791
97.5528
0.599076
-0.721561
85.1559
0.106035
-0.231553
69.0697
-0.200858
-0.00806681
47.55
-0.167799
-0.113246
43.0206
-0.064476
0.0695196
38.4273
0.00053
0.537153
36.1513
0.0138282
1.20885
35.6297
1.46154
30.8816
0.427502
0.0772269
36.7923
0.85963
0.067025
42.5554
1.27531
0.0676075
47.4875
1.55436
0.0920293
51.7154
1.60302
0.234915
54.8228
1.45447
0.334454
56.3698
1.15796
0.484807
56.0384
0.467987
0.59592
57.1812
-0.238178
-0.012658
75.2613
-0.507347
-0.799006
92.6533
-0.5901
-0.991755
107.753
-0.623364
-0.881191
119.701
-0.630734
-0.668715
127.343
-0.611299
-0.44135
132.157
-0.54029
-0.215322
134.351
-0.400099
0.00622146
133.127
-0.157824
0.199469
130.011
0.0877241
0.285314
130.153
0.248761
0.246416
131.461
0.346212
0.20396
127.71
0.446457
0.127201
128.42
0.590955
0.0947543
131.486
0.759141
0.000408426
135.343
0.919298
-0.114615
138.558
1.05172
-0.241321
139.927
1.15943
-0.384917
139.259
1.22321
-0.512918
136.879
1.22747
-0.638599
132.908
1.16105
-0.719767
127.368
1.02306
-0.766126
120.158
0.815134
-0.733178
111.136
0.558222
-0.680892
99.7637
0.0576004
-0.250988
84.3651
-0.440463
0.259601
58.2963
-0.58183
0.139559
54.233
-0.577385
-0.102455
50.2368
-0.447635
-0.0431367
42.8166
-0.234875
0.317524
36.3733
-0.0531521
1.00079
35.2692
1.38485
31.2868
0.282036
-0.200016
52.4215
0.58661
-0.219705
64.9231
0.925161
-0.256914
71.9124
1.24428
-0.238378
71.9234
1.3848
0.0645716
69.4281
1.257
0.418356
66.1574
1.03639
0.656358
62.0549
0.775576
0.832289
60.2304
0.27314
0.512073
65.2042
-0.161764
-0.326102
84.541
-0.297825
-0.824665
104.186
-0.357904
-0.81222
121.2
-0.381345
-0.645303
132.031
-0.380993
-0.443409
139.232
-0.344514
-0.249807
144.1
-0.258076
-0.0728778
146.672
-0.110169
0.070501
146.935
0.0514621
0.146813
147.115
0.183856
0.133067
146.343
0.289287
0.111724
141.633
0.39119
0.0389686
142.453
0.517458
-0.0155653
146.111
0.652109
-0.122399
150.055
0.784752
-0.240633
151.466
0.913108
-0.368283
150.772
1.01468
-0.489943
148.357
1.08006
-0.586019
144.461
1.08087
-0.652
139.085
1.00586
-0.661791
132.327
0.83311
-0.616301
124.042
0.601369
-0.52751
114.071
0.25954
-0.368356
101.391
-0.196994
0.193204
79.4657
-0.518844
0.568357
62.6644
-0.733687
0.345084
63.9224
-0.841029
0.0367502
64.1626
-0.748717
-0.0729416
56.2564
-0.470982
0.0862943
42.4269
-0.123899
0.638347
34.7022
1.23721
31.1679
0.0368876
-0.243385
58.9024
0.195338
-0.381725
75.1007
0.38022
-0.44436
80.0654
0.659833
-0.533516
74.4161
0.914896
-0.218294
69.4141
0.918964
0.370797
66.4582
0.797863
0.730398
62.8518
0.680192
0.926826
61.2579
0.538348
0.655736
64.4768
0.225254
0.0252634
74.6392
-0.011552
-0.532818
95.1125
-0.113805
-0.679907
119.2
-0.181966
-0.56834
134.059
-0.217866
-0.405229
143.81
-0.222528
-0.244291
150.449
-0.188787
-0.102865
154.888
-0.105377
-0.00560035
157.094
0.000244302
0.0514388
157.951
0.107111
0.0354481
156.862
0.218149
0.00804901
152.227
0.332336
-0.0691981
153.22
0.463871
-0.139167
157.237
0.600859
-0.25272
159.817
0.74252
-0.378439
159.842
0.876408
-0.501043
157.976
0.987408
-0.601994
154.445
1.05097
-0.653274
149.481
1.04776
-0.656227
143.129
0.951957
-0.57834
135.657
0.756404
-0.438327
126.995
0.453673
-0.246244
116.782
0.0661667
-0.00160836
103.495
-0.219466
0.484795
79.96
-0.438413
0.774898
65.8992
-0.64838
0.52311
69.4737
-0.764923
0.136776
75.677
-0.770599
-0.0258891
76.453
-0.585503
-0.00752384
65.101
-0.20385
0.328048
42.9175
1.02219
30.9524
-0.0803457
-0.17124
64.8744
-0.0312715
-0.433478
80.5677
0.0364306
-0.514256
83.9783
0.147106
-0.639805
73.7725
0.413509
-0.497265
63.5927
0.528098
0.235898
62.7007
0.546441
0.68298
61.2257
0.636098
0.824185
61.1316
0.667769
0.62872
63.902
0.561233
0.163246
70.1105
0.34975
-0.254008
86.1978
0.183168
-0.451993
111.443
0.0742049
-0.42971
132.527
-0.00147135
-0.318013
145.85
-0.0352854
-0.204718
154.824
-0.0326504
-0.100671
160.542
0.0023459
-0.0350377
164.256
0.0548298
0.00552168
165.663
0.112263
-0.0158853
164.982
0.176882
-0.0526469
160.928
0.247036
-0.13444
161.544
0.335162
-0.220681
165.125
0.445013
-0.356595
166.617
0.579519
-0.508246
165.485
0.738824
-0.655987
162.402
0.88988
-0.749211
157.561
0.999699
-0.760816
151.388
1.02679
-0.685689
144.149
0.938198
-0.497295
136.444
0.722344
-0.236843
128.11
0.413202
0.0460221
118.537
0.0510653
0.344408
105.859
-0.175144
0.727614
83.9552
-0.297835
0.893317
68.1065
-0.43325
0.624678
70.4613
-0.498641
0.164851
78.6169
-0.491206
-0.0427534
87.4233
-0.391497
-0.0648806
87.6636
-0.210851
0.237963
65.3268
0.866549
35.1079
-0.165928
-0.0155382
68.9388
-0.181879
-0.414518
84.2583
-0.154013
-0.534054
87.3556
-0.180508
-0.597037
74.0337
-0.0309227
-0.628314
64.7918
0.276954
-0.0775786
58.3386
0.423473
0.524229
59.39
0.611393
0.631587
60.677
0.794765
0.450132
63.3305
0.795352
0.188978
67.9566
0.636927
-0.0321824
80.3659
0.411166
-0.147436
105.019
0.221795
-0.193867
129.796
0.0864686
-0.162749
146.37
0.00302935
-0.112987
156.868
-0.0408945
-0.0519732
163.942
-0.049801
-0.0221516
168.225
-0.0328418
-0.00693508
170.079
0.000499638
-0.0453784
169.364
0.0546984
-0.102746
165.116
0.125575
-0.201097
165.855
0.229193
-0.317708
169.611
0.369421
-0.488943
170.167
0.552661
-0.680531
167.909
0.754651
-0.842123
163.521
0.916765
-0.892048
157.182
0.994465
-0.821715
149.777
0.980748
-0.661886
141.966
0.877644
-0.392511
134.528
0.648689
-0.0149429
127.434
0.307186
0.379551
119.345
-0.0432342
0.693434
108.08
-0.190719
0.903119
87.6901
-0.223939
0.937372
70.9639
-0.260792
0.639488
70.7007
-0.288673
0.163222
79.6169
-0.278461
-0.0661007
92.8879
-0.172548
-0.151811
99.0346
-0.11473
0.228912
79.7715
0.859849
47.8271
-0.156238
0.129949
69.0937
-0.195114
-0.365387
86.0927
-0.231935
-0.476548
92.0415
-0.306122
-0.487882
75.5253
-0.38651
-0.524083
63.2136
-0.0847523
-0.371758
61.1095
0.422856
0.0202312
59.1319
0.721964
0.340897
61.2583
0.901598
0.290304
64.4249
0.901753
0.22883
70.0924
0.753463
0.190085
83.1341
0.555577
0.134781
105.734
0.379122
0.039371
129.083
0.245755
-0.0010705
145.959
0.155501
-0.00793465
157.382
0.0994624
0.0127291
165.158
0.0690148
0.0147486
170.215
0.055352
0.0120231
172.596
0.0487694
-0.0334227
172.135
0.0450348
-0.0933744
168.031
0.0456992
-0.194449
168.164
0.0701772
-0.33233
171.57
0.143051
-0.547096
171.199
0.295172
-0.809932
167.325
0.502235
-1.01569
160.562
0.658371
-1.01411
151.715
0.722332
-0.859085
142.923
0.706935
-0.62842
134.916
0.601471
-0.277186
128.328
0.329644
0.259362
122.687
-0.036206
0.742717
116.368
-0.2922
0.962679
105.835
-0.320584
0.960219
89.1597
-0.224117
0.859429
74.2429
-0.132432
0.540025
71.5588
-0.118584
0.136155
80.8257
-0.0994668
-0.0884251
97.0689
-0.0556917
-0.169416
101.701
-0.0656789
0.255969
80.1643
0.867604
57.687
-0.0125222
0.133173
60.3209
-0.127378
-0.231231
83.1236
-0.230905
-0.34051
96.281
-0.369213
-0.300388
76.2896
-0.555661
-0.314322
63.0028
-0.536733
-0.379329
63.0899
-0.0581237
-0.449207
65.5665
0.411712
-0.105856
68.5182
0.538674
0.189205
72.1186
0.545635
0.264866
79.9044
0.483764
0.307549
94.1457
0.393503
0.27571
112.909
0.274189
0.191798
130.606
0.155256
0.137877
145.246
0.0536354
0.104179
156.319
-0.0263199
0.0984362
164.349
-0.0908548
0.0829279
169.437
-0.141715
0.0676239
171.516
-0.186834
0.0177919
170.134
-0.221119
-0.0544848
165.971
-0.22961
-0.180433
166.9
-0.175225
-0.374292
169.878
-0.0344807
-0.665921
168.103
0.158187
-0.957811
162.268
0.247183
-1.03951
152.555
0.10379
-0.810626
141.999
-0.240241
-0.466673
133.341
-0.614249
-0.218217
126.083
-0.89552
0.0281132
120.565
-1.02244
0.40212
115.44
-0.982093
0.716587
109.949
-0.833188
0.833352
100.866
-0.596616
0.74937
88.4836
-0.339411
0.619469
77.7788
-0.200742
0.395625
76.4513
-0.273524
0.194836
91.8226
-0.360645
0.0299814
103.665
-0.399084
-0.0845099
84.2524
-0.310181
0.146627
64.371
0.580875
60.4589
0.245779
-0.122028
51.259
0.107877
-0.0641907
67.7264
-0.211533
0.0228361
96.3514
-0.479583
0.0193902
73.1714
-0.664927
-0.108154
61.6099
-0.65716
-0.369588
62.4525
-0.456755
-0.632618
65.1643
-0.112358
-0.429399
71.0433
0.161579
-0.0662363
77.9346
0.299638
0.153214
86.4597
0.375678
0.262166
97.493
0.38338
0.29617
111.052
0.332943
0.267391
125.495
0.252416
0.238067
139.379
0.169639
0.200473
151.071
0.100537
0.175802
159.839
0.0462365
0.143051
165.549
0.0029575
0.115822
168.146
-0.0409987
0.0682203
167.081
-0.098319
0.00933944
161.841
-0.190376
-0.0825763
162.485
-0.340456
-0.20588
166.429
-0.589006
-0.365886
163.187
-0.973944
-0.481805
152.404
-1.47848
-0.44251
137.884
-1.98543
-0.237785
126.29
-2.37906
-0.0263986
119.044
-2.62997
0.0670082
114.035
-2.66391
0.0886203
110.164
-2.40659
0.162387
106.773
-1.95286
0.277206
102.249
-1.447
0.340527
96.011
-0.964938
0.279371
89.2504
-0.561719
0.221883
85.2356
-0.380206
0.206479
88.9708
-0.430685
0.242315
102.117
-0.552255
0.210931
104.636
-0.654664
0.0995515
79.2327
-0.582597
0.0639112
56.2428
-0.0226836
55.1828
0.314978
-0.470687
53.5457
0.198401
0.0719234
62.6141
-0.11959
0.385444
92.6751
-0.381275
0.321998
69.735
-0.55935
0.089123
58.9972
-0.518838
-0.399329
59.2312
-0.315502
-0.836299
60.726
-0.0710244
-0.657976
65.2538
0.156697
-0.276624
75.5186
0.273109
0.0537724
86.4534
0.307727
0.248356
97.2565
0.286726
0.343086
111.098
0.21354
0.364189
126.206
0.122625
0.346419
140.436
0.0239684
0.309145
151.941
-0.071217
0.275906
160.497
-0.170308
0.245734
165.807
-0.281677
0.233079
167.601
-0.443705
0.238637
165.521
-0.703633
0.271277
161.871
-1.09686
0.32471
163.068
-1.65081
0.4237
160.283
-2.45651
0.575854
146.279
-3.51332
0.682176
129.912
-4.49199
0.592758
121.988
-4.98311
0.304525
118.937
-4.87419
-0.0866916
116.212
-4.4136
-0.352889
113.067
-3.89295
-0.399893
109.559
-3.35779
-0.345367
105.981
-2.7394
-0.319643
102.396
-2.06696
-0.315987
99.0608
-1.43668
-0.339003
96.8039
-0.919255
-0.292431
97.1763
-0.573321
-0.145619
102.13
-0.372063
0.0378406
110.478
-0.27486
0.141247
114.109
-0.355805
0.251138
98.2324
-0.404862
0.139673
60.5469
-0.439002
52.3147
0.110057
-0.604304
62.4091
0.0682114
0.131826
76.2077
0.0399438
0.437445
99.2739
-0.0353145
0.417671
78.6278
-0.174723
0.244583
62.3154
-0.217192
-0.359482
59.5699
-0.113043
-0.958281
60.634
0.1679
-0.939435
62.2099
0.390636
-0.483711
68.6915
0.461556
0.0113621
79.7559
0.438796
0.308141
94.39
0.355685
0.466051
111.437
0.259743
0.494003
128.751
0.169461
0.460484
143.741
0.0932309
0.400936
155.321
0.0323792
0.347328
163.723
-0.0183072
0.304701
169.171
-0.0637396
0.287124
171.635
-0.11675
0.302678
170.625
-0.195605
0.35995
166.279
-0.30922
0.448314
167.294
-0.455084
0.599098
169.956
-0.659076
0.848326
165.321
-0.964736
1.09346
153.967
-1.40449
1.13225
140.417
-1.87489
0.851235
129.662
-2.29781
0.395716
121.536
-2.60775
0.00265248
114.966
-2.68168
-0.288787
110.213
-2.46284
-0.529434
104.558
-2.02333
-0.728229
97.8051
-1.50677
-0.802019
90.0647
-0.989792
-0.828461
82.3456
-0.569031
-0.700966
77.5189
-0.291111
-0.432096
80.6768
-0.213358
-0.0611787
96.0591
-0.176763
0.106516
110.65
-0.177441
0.290588
105.906
-0.138645
0.128604
71.0664
-0.577215
56.7148
-0.0332547
-0.561659
67.7749
0.0558569
0.0544915
83.6201
0.198318
0.304898
99.2464
0.231605
0.379813
84.0931
0.184926
0.273884
68.4709
0.11448
-0.313916
63.6851
0.0187622
-0.897555
63.4611
0.150062
-1.08867
62.7385
0.385048
-0.715944
67.5173
0.437715
-0.0144647
77.538
0.343863
0.444859
94.6784
0.224567
0.628245
114.939
0.118035
0.630336
133.141
0.0303276
0.56617
147.459
-0.0409466
0.481646
158.081
-0.0972177
0.409637
165.623
-0.142041
0.354344
170.216
-0.177993
0.328671
172.068
-0.206644
0.338081
170.798
-0.232676
0.391085
167.136
-0.239678
0.460323
168.311
-0.185038
0.556676
171.464
-0.0445615
0.733018
169.842
0.156824
0.943424
164.155
0.288357
1.07112
155.021
0.22194
0.98078
145.619
-0.0767992
0.738679
138.351
-0.521134
0.47537
132.488
-0.913602
0.141312
124.658
-1.11469
-0.297172
114.982
-1.10353
-0.71207
105.755
-0.937091
-0.931942
93.6775
-0.669189
-1.05831
79.6899
-0.439427
-0.922884
69.6696
-0.30667
-0.590273
70.6976
-0.306933
-0.099242
84.5625
-0.303467
0.0929872
104.014
-0.207916
0.225213
105.889
-0.0877238
0.0305048
76.5197
-0.629048
57.6834
0.0120023
-0.528028
65.1486
0.199329
-0.117779
83.7004
0.443468
0.0688195
95.1385
0.575113
0.224531
86.4264
0.644809
0.162354
75.2166
0.581057
-0.295242
70.993
0.359891
-0.727858
67.928
0.270159
-1.03719
64.7055
0.342827
-0.787864
67.6661
0.33794
0.0171833
79.0985
0.227265
0.598637
97.4599
0.117093
0.775692
118.422
0.033838
0.735875
135.814
-0.0255518
0.637241
148.849
-0.0681928
0.530473
158.323
-0.0906792
0.436458
164.867
-0.0997132
0.367319
168.973
-0.0959334
0.329509
170.718
-0.0834564
0.331022
169.676
-0.0712521
0.383114
165.664
-0.0533104
0.445969
166.49
-0.00273219
0.513126
170.631
0.0990034
0.64282
170.35
0.276251
0.786317
166.912
0.489923
0.887801
161.024
0.63449
0.866664
153.477
0.679071
0.71495
145.992
0.642719
0.523419
138.838
0.477246
0.312098
131.812
0.14911
0.0317726
124.307
-0.24097
-0.30968
114.462
-0.47326
-0.663229
98.5172
-0.456558
-1.03363
78.7689
-0.42137
-0.963431
66.5761
-0.416348
-0.635635
67.9398
-0.369222
-0.1957
75.2439
-0.347703
0.041873
89.7009
-0.238469
0.130434
97.8749
-0.110941
-0.0662663
79.8759
-0.658788
51.7158
0.202143
-0.647022
54.0235
0.515759
-0.35627
74.5296
0.820625
-0.188034
86.3079
1.04231
-0.0106188
86.1338
1.17303
-0.0173854
80.9347
1.06901
-0.248614
76.9558
0.780428
-0.505434
72.3259
0.479351
-0.792999
67.1208
0.332177
-0.65041
67.5675
0.212256
0.16253
80.4015
0.0457592
0.802073
100.85
-0.0644714
0.907475
121.989
-0.131815
0.812986
137.652
-0.176619
0.685224
148.505
-0.199626
0.553688
156.383
-0.203209
0.439877
161.881
-0.186687
0.351152
165.281
-0.155012
0.299073
166.476
-0.103411
0.280769
165.154
-0.0420578
0.32163
161.256
0.0303979
0.373414
162.134
0.138145
0.407082
166.825
0.285768
0.498778
167.299
0.478818
0.599585
165.125
0.687419
0.689808
161.222
0.839666
0.727331
155.722
0.878167
0.686471
149.325
0.808172
0.59721
142.268
0.670024
0.447993
134.633
0.428651
0.266119
126.245
0.0558635
0.0580144
116.529
-0.26267
-0.315481
100.303
-0.42011
-0.836611
76.0521
-0.566927
-0.836428
65.1315
-0.704786
-0.548137
69.3045
-0.733653
-0.217215
77.2537
-0.681179
-0.0249182
85.6467
-0.516094
0.00793196
86.6405
-0.260861
-0.23686
67.5168
-0.853755
38.2894
0.342297
-0.918071
39.1145
0.820293
-0.724768
51.705
1.27328
-0.519296
63.4374
1.6015
-0.250802
73.1278
1.71933
-0.110775
77.446
1.55707
-0.112094
77.2849
1.18282
-0.189092
73.8177
0.743578
-0.41659
68.285
0.380236
-0.302464
67.4222
0.0512704
0.524738
81.9514
-0.15515
1.03333
106.336
-0.231628
0.994272
124.223
-0.281804
0.864014
136.981
-0.29656
0.69782
146.058
-0.290797
0.545002
152.627
-0.261258
0.408636
157.235
-0.213122
0.302631
159.976
-0.148662
0.235571
160.78
-0.0648036
0.197716
159.269
0.0222401
0.23366
154.929
0.104804
0.289236
155.913
0.200687
0.311404
160.728
0.315022
0.384219
161.923
0.457871
0.455913
160.517
0.617598
0.528502
157.494
0.761641
0.58104
153.012
0.848356
0.595295
147.375
0.853022
0.584727
140.655
0.745126
0.544325
132.986
0.539436
0.457357
124.14
0.242389
0.339882
113.558
-0.143208
0.0769783
98.5254
-0.44914
-0.502481
72.2667
-0.721576
-0.58784
63.1433
-0.974753
-0.331701
67.3191
-1.08598
-0.114491
71.9084
-1.00325
-0.0552547
71.4191
-0.691156
-0.201781
61.7089
-0.238853
-0.618478
44.0982
-1.09809
31.7723
0.26929
-1.20044
31.8315
0.724534
-1.19031
37.68
1.16931
-0.949307
42.3279
1.54267
-0.568838
47.924
1.74232
-0.234523
54.8321
1.67488
0.0159407
61.7598
1.36886
0.129874
65.4135
0.866918
0.0547982
64.8462
0.208936
0.350095
66.1217
-0.248279
1.00785
89.2907
-0.391681
1.18534
109.817
-0.452074
1.05221
124.143
-0.472736
0.877061
134.354
-0.462775
0.679533
141.715
-0.427779
0.503213
147.006
-0.370256
0.346821
150.535
-0.290444
0.221173
152.421
-0.193977
0.139269
152.49
-0.0635775
0.0674137
150.469
0.0649982
0.103106
145.778
0.168599
0.183032
147.119
0.286752
0.193688
152.357
0.417851
0.252554
154.211
0.562952
0.308344
153.466
0.70919
0.378089
151.193
0.828439
0.455775
147.583
0.899041
0.516464
142.785
0.899751
0.572618
136.794
0.826774
0.602599
129.635
0.655116
0.610923
121.15
0.395883
0.580242
111.002
-0.0436194
0.505522
97.6348
-0.515997
-0.00376885
68.4364
-0.818739
-0.290411
59.1895
-1.02607
-0.115475
59.2858
-1.06612
-0.0267249
56.8158
-0.889614
-0.165869
49.3039
-0.551652
-0.510113
40.7631
-0.155669
-1.03103
35.8758
-1.27508
31.6661
0.172753
-1.40498
31.6414
0.474618
-1.53106
38.1317
0.739083
-1.25136
41.6504
0.967678
-0.823042
43.6839
1.11539
-0.388695
45.283
1.09773
0.0421351
48.1998
0.86198
0.372513
52.1467
0.296043
0.623268
55.0796
-0.341007
0.999364
73.7052
-0.601171
1.2758
95.3751
-0.661694
1.24182
110.745
-0.675141
1.05486
121.923
-0.653169
0.842133
129.859
-0.608118
0.623469
135.557
-0.53867
0.425768
139.465
-0.450376
0.255022
141.863
-0.342958
0.114165
142.703
-0.213645
0.0139062
141.783
-0.0434925
-0.0946064
137.847
0.11065
-0.0474513
132.746
0.219857
0.0733682
135.936
0.322544
0.0935484
141.369
0.433537
0.142078
144.094
0.561434
0.177872
144.035
0.693269
0.240321
142.391
0.816127
0.323819
139.514
0.906635
0.41346
135.532
0.942862