/*--------------------------------*- C++ -*----------------------------------*\
  =========                 |
  \\      /  F ield         | OpenFOAM: The Open Source CFD Toolbox
   \\    /   O peration     | Website:  https://openfoam.org
    \\  /    A nd           | Version:  11
     \\/     M anipulation  |
\*---------------------------------------------------------------------------*/
FoamFile
{
    format      ascii;
    class       volVectorField;
    location    "600";
    object      U;
}
// * * * * * * * * * * * * * * * * * * * * * * * * * * * * * * * * * * * * * //

dimensions      [0 1 -1 0 0 0 0];

internalField   nonuniform List<vector> 
128000
(
(5.25944 -1.98491 16673.1)
(-4.56389 136.515 21060.3)
(-29.8333 246.615 21137.7)
(-27.4121 335.16 22136.3)
(-72.7686 465.864 23054.1)
(-98.5838 542.822 23626.6)
(-144.259 614.023 23957.9)
(-182.372 629.206 23902.6)
(-214.168 602.29 23378.6)
(-216.974 522.795 22585.4)
(-196.68 430.025 21614.5)
(-170.928 319.949 20471.4)
(-156.567 140.867 21908.7)
(-76.9576 -46.8011 31694.4)
(13.7294 -56.5817 36787.4)
(36.3361 -27.8556 39728.4)
(44.1128 36.4884 41833.6)
(2.75686 102.721 41936.7)
(-63.063 92.1211 38078.4)
(-122.673 6.33023 32691.7)
(-17.9006 -152.449 31186.4)
(111.964 -142.881 36637.9)
(165.637 -74.4452 41267.1)
(128.441 -52.7008 41441.2)
(89.3793 -78.0843 37269.3)
(96.9506 -138.936 29984)
(247.026 -203.537 22224.7)
(412.85 -236.48 21475.2)
(535.434 -268.573 22708.5)
(641.404 -289.942 23727)
(733.047 -293.787 24524.7)
(795.976 -272.941 25162.3)
(804.047 -225.984 25387.5)
(771.526 -181.897 25232.4)
(687.751 -126.176 24748.9)
(591.12 -94.9862 23988)
(455.667 -45.4999 23000.2)
(336.382 -37.5447 21665.2)
(225.678 -19.0497 21320.7)
(67.9372 5.13394 19554.4)
(-5.99663 -129.384 21020.3)
(77.8826 3.97515 22247.3)
(39.099 149.992 23413.5)
(59.3917 222.385 24946.3)
(43.3046 403.676 26405.9)
(8.25315 483.777 27193.6)
(-41.5922 578.048 27724.9)
(-111.987 619.695 27771.9)
(-197.348 605.169 27151.1)
(-268.358 512.033 25905.7)
(-283.407 368.965 24403.7)
(-264.929 194.064 22537.1)
(-231.619 -50.8907 23647)
(-148.884 -167.927 36351.7)
(-9.76676 -115.092 44090.2)
(82.5243 -75.5597 46607.3)
(118.378 -45.7363 47797.7)
(114.776 -28.8146 48161.2)
(83.5872 -52.9551 45750.2)
(-58.3314 -113.463 36086)
(-109.942 -99.6054 33415)
(-90.3127 54.1803 43198.8)
(-56.8044 70.9479 47222.1)
(-53.5585 41.5766 48133.9)
(-56.4337 -51.0255 46348.9)
(-92.4952 -180.856 37224.4)
(10.0924 -276.304 24776.6)
(253.063 -338.52 23782)
(449.235 -366.424 25731.2)
(606.01 -361.424 27249.9)
(729.625 -313.094 28406.9)
(794.234 -223.703 29168.7)
(787.402 -135.699 29478.8)
(733.889 -61.3627 29315.8)
(627.491 -1.04584 28689.6)
(528.107 35.4468 27696.4)
(346.954 65.174 26284.5)
(247.735 38.7412 24234.1)
(88.4291 84.682 22937.3)
(-31.6336 8.63167 21425)
(-29.133 -235.437 21041.7)
(37.474 -138.42 23375.9)
(72.8142 7.68419 25281.5)
(91.6741 115.565 26902.9)
(112.808 250.93 28342.3)
(115.313 349.67 29436.9)
(95.0833 453.462 30159.7)
(46.4563 508.593 30240)
(-47.7058 511.792 29335)
(-181.256 422.088 27397.3)
(-260.333 254.087 25351.3)
(-304.076 50.8845 23191.9)
(-323.833 -216.667 24872.8)
(-240.924 -303.266 38597.5)
(-51.8943 -225.657 44772.6)
(51.3324 -155.326 46035.9)
(136.546 -80.9103 46786.6)
(159.492 -59.1482 48884)
(135.558 -37.6803 51672.9)
(76.5251 -54.5614 51832.4)
(-61.9202 86.9452 48757.5)
(-107.897 157.631 50840.1)
(-141.775 121.309 51631.5)
(-164.526 38.8923 51010.1)
(-199.429 -98.276 49024)
(-270.874 -260.592 41791.1)
(-218.027 -345.223 27118.4)
(52.4993 -370.208 24338.5)
(279.005 -334.541 26436.3)
(464.407 -277.68 28272.6)
(605.975 -172.158 29741.4)
(665.793 -51.438 31076.5)
(648.916 36.1963 31747.1)
(588.128 86.2311 31723.4)
(479.637 117.744 31005.5)
(369.598 113.113 29754.5)
(213.801 97.1556 28159.9)
(96.6769 75.7867 26310.9)
(-67.882 47.1044 24214.5)
(-186.098 -27.0007 21255.8)
(-26.6119 -322.031 22034.6)
(59.6284 -208.191 24882.3)
(93.8629 -98.9871 26884.3)
(148.944 10.0197 28606.7)
(175.708 144.519 30081.8)
(192.422 239.67 31189.6)
(195.25 334.817 31968.4)
(169.09 391.691 32111.2)
(107.094 396.499 31096.9)
(-58.6774 300.155 27989.2)
(-210.999 122.435 25290.2)
(-294.16 -97.5332 23245.5)
(-374.167 -357.053 25971.9)
(-330.461 -396.542 37688.9)
(-93.3823 -274.819 40204.6)
(87.2787 -185.037 38492.2)
(143.727 -124.382 37880.4)
(169.225 -63.5798 38774.5)
(141.527 -44.1036 40495.4)
(120.804 9.13499 39713.2)
(24.7975 133.139 35300)
(-79.7041 129.215 37342.6)
(-169.621 85.2335 39863.5)
(-242.463 8.30051 42170.5)
(-301.844 -105.385 44026.9)
(-395.52 -284.55 42952)
(-435.531 -384.122 30106.4)
(-187.031 -357.258 24310.4)
(67.9177 -277.341 25955.8)
(282.434 -187.957 27864.5)
(442.566 -30.3654 29856.2)
(517.78 107.209 32237.4)
(506.912 168.728 33322.8)
(453.062 205.07 33436.3)
(348.896 208.907 32659.6)
(248.258 186.718 31474.4)
(103.794 172.227 29907.2)
(-25.4307 109.301 28022.2)
(-133.641 72.8569 25726.1)
(-270.844 -11.1367 22546.7)
(-70.6011 -446.549 22901)
(39.9063 -386.823 26281.8)
(113.285 -229.173 28243.8)
(173.532 -120.084 30014.4)
(243.196 13.5245 31540.4)
(272.713 120.231 32751.5)
(300.488 209.259 33565.4)
(288.623 263.096 33682)
(261.671 285.205 32760.5)
(134.152 191.043 29713.3)
(-118.291 46.0847 24340.6)
(-273.735 -204.237 23054.5)
(-400.713 -415.319 26827.1)
(-413.943 -402.565 35374.6)
(-255.905 -293.996 36287.9)
(-45.4655 -187.448 31807.8)
(157.723 -92.0142 31793.6)
(204.104 -51.5798 30910.4)
(190.911 -10.23 31045.4)
(187.466 88.7157 30208.8)
(144.874 164.749 28643.8)
(30.6786 129.185 28732.5)
(-88.9126 86.9469 30437.9)
(-197.537 -6.72399 34017.1)
(-327.891 -159.795 38197.4)
(-449.238 -340.076 40915.5)
(-552.03 -422.895 32691.8)
(-364.558 -326.412 24494.3)
(-101.64 -213.023 24664.7)
(116.759 -40.6983 25581.6)
(285.791 177.316 30145.5)
(360.511 274.849 33273.3)
(348.033 314.523 34644.6)
(299.846 326.683 34850.8)
(208.667 300.529 34155.3)
(101.521 266.327 32909.8)
(-43.3688 203.6 31275.1)
(-167.041 121.554 29337.9)
(-342.92 64.9824 27236.3)
(-430.072 -64.484 23590.4)
(-94.3054 -515.307 23405.8)
(6.62053 -457.088 26956.9)
(114.397 -320.386 29205.3)
(190.776 -210.099 31015.6)
(271.006 -88.9344 32635.8)
(326.939 17.6029 34040.7)
(366.915 104.739 35089.4)
(382.232 151.047 35451.9)
(356.634 172.581 34679.4)
(311.198 119.98 32261.1)
(53.5359 -11.9418 25448.2)
(-210.92 -233.105 23100.4)
(-369.953 -408.738 27224.4)
(-422.965 -327.437 32706.1)
(-343.328 -183.147 32992.3)
(-235.951 -71.7827 30251.5)
(-118.055 1.42984 27638.4)
(97.2874 42.5813 27555.5)
(186.582 47.289 28928.6)
(230.349 107.466 29156.2)
(235.689 108.841 27695.6)
(175.179 19.8364 26820.6)
(69.2181 -58.8062 28161.5)
(-65.3212 -164.939 31361.4)
(-215.031 -270.777 35149.6)
(-376.851 -373.714 37877.8)
(-542.089 -420.188 33909.9)
(-475.043 -275.042 25521.8)
(-217.149 -111.336 24006.7)
(-19.3151 152.56 26351)
(140.608 325.578 31475.6)
(200.281 390.13 34711.2)
(203.4 414.61 36208.8)
(164.258 402.447 36335.1)
(83.8994 360.285 35463.6)
(-18.2429 301.537 34009.1)
(-147.878 220.819 32233.7)
(-259.572 139.083 30225.1)
(-413.956 39.5205 27893.1)
(-518.711 -85.7014 24176.7)
(-137.319 -577.068 23654)
(-44.973 -544.56 27410.8)
(94.1525 -423.051 29852.2)
(190.845 -301.829 31666.5)
(297.808 -174.092 33300.3)
(366.076 -67.2646 34933.1)
(421.808 18.8084 36386.2)
(448.906 70.297 37277.7)
(446.248 81.996 37212)
(403.039 66.2763 35822.7)
(285.478 -49.8624 32554.9)
(-123.603 -203.634 23300.7)
(-345.557 -301.501 26708.6)
(-386.721 -203.466 29664.5)
(-369.858 -73.0772 29747.5)
(-293.9 50.935 28291)
(-226.498 91.0347 26843.3)
(-175.829 62.7101 26182)
(79.5147 14.7573 28409.6)
(216.929 55.4604 29529.3)
(250.259 7.79947 27601.5)
(259.093 -102.571 26438.2)
(246.902 -177.056 27559)
(134.362 -234.055 29545.9)
(-40.4688 -305.545 32108.5)
(-231.838 -357.221 34200.9)
(-429.211 -363.762 32982.5)
(-442.078 -210.889 26550.9)
(-255.595 14.2688 24205.7)
(-95.8986 314.087 30177.2)
(33.4491 434.864 34611.2)
(79.2506 494.903 37252.3)
(87.8134 496.503 38218.1)
(52.2861 469.848 37863)
(-19.9878 407.667 36562.3)
(-117.648 334.759 34766.9)
(-248.235 234.882 32869)
(-381.857 121.877 30905.5)
(-532.318 -0.910649 28399.7)
(-619.911 -139.184 24560.4)
(-171.953 -578.794 23471.7)
(-115.489 -573.9 27327.1)
(40.9462 -468.044 29784.3)
(166.195 -350.967 31646.5)
(280.649 -223.894 33206.6)
(376.751 -108.04 35094.1)
(445.848 -28.8801 37099.9)
(483.802 20.5037 38674.5)
(495.751 35.6626 39416.8)
(465.638 17.3847 38960.5)
(398.938 -29.3504 36967)
(194.277 -127.578 32976.1)
(-270.62 -169.177 26508.4)
(-362.871 -81.5479 27612.2)
(-360.67 41.4473 27614.7)
(-341.565 90.0644 26996.5)
(-280.442 81.4015 26320.6)
(-249.381 5.30628 26129)
(-153.507 -35.3418 28194.4)
(112.376 28.265 30858.5)
(152.974 -19.9602 29373.5)
(138.574 -122.116 26765.8)
(219.461 -188.521 26692.5)
(216.853 -249.51 27623.7)
(116.724 -305.228 29062.7)
(-45.1977 -321.428 30393.6)
(-239.833 -310.535 30419.1)
(-327.982 -141.993 26837.9)
(-233.877 205.012 30449.9)
(-114.476 432.978 35431.9)
(-43.2304 515.229 38606.7)
(-3.16313 548.868 40160.7)
(6.4058 531.513 40241.4)
(-22.4446 488.5 39109.1)
(-84.5464 412.583 37136.2)
(-176.795 325.579 34847.3)
(-303.62 203.439 32770.2)
(-432.89 93.1603 30654.5)
(-593.766 -58.1076 28292.4)
(-676.134 -178.271 24622.7)
(-194.778 -539.002 22797.8)
(-201.041 -542.713 26502.9)
(-62.8678 -455.034 28554.4)
(89.7265 -337.119 30278.1)
(254.285 -235.487 32040.3)
(346.994 -129.276 34082.6)
(435.765 -41.0184 36856.4)
(489.476 5.41627 39245.5)
(515.819 19.8905 40985.9)
(505.044 7.73437 41662.9)
(451.742 -33.8844 40937.7)
(360.636 -92.153 38719.8)
(128.63 -116.128 34295.5)
(-227.838 -44.7966 28603.7)
(-280.105 -8.64793 27819.5)
(-309.83 30.1749 27109.6)
(-293.504 -22.6346 26482.7)
(-273.868 -97.581 26518.1)
(-205.727 -74.3794 28844.8)
(-81.3403 34.9182 31512.2)
(67.9674 -13.3583 31984.8)
(-21.8376 -82.2137 29447.7)
(22.6395 -171.076 27952.8)
(72.8817 -186.357 28178.9)
(83.1512 -217.866 28584.7)
(-9.35287 -195.384 29169.9)
(-127.551 -144.186 29682.2)
(-224.745 146.032 32564)
(-201.604 396.701 37756.5)
(-136.719 516.082 40869.4)
(-83.5352 560.314 42477.9)
(-43.5871 569.758 42746.5)
(-31.017 537.787 41765.2)
(-53.2577 483.936 39673.4)
(-105.51 395.33 36856.6)
(-194.352 294.86 33960.2)
(-314.458 173.403 31752.2)
(-453.336 33.3578 29606.5)
(-626.798 -119.281 27653.4)
(-709.312 -227.594 24395.6)
(-189.73 -450.159 21957.3)
(-256.1 -429.174 25119.9)
(-194.364 -341.345 26420.7)
(-88.4505 -225.38 26656.9)
(91.7342 -125.023 28252.7)
(291.755 -56.9954 31344.6)
(393.219 -21.2521 35350.2)
(455.143 21.8911 38618.3)
(501.481 30.8493 41516.9)
(505.159 19.3597 43442.5)
(475.817 -19.435 44056.8)
(412.538 -72.4511 43179.8)
(310.564 -126.435 40764.2)
(147.307 -111.972 36485.3)
(-87.418 -102.61 31174.2)
(-172.578 -109.234 28778.4)
(-241.327 -132.238 27535.9)
(-244.403 -166.556 27934.4)
(-218.367 -59.9473 31034.3)
(-137.09 36.5147 34085.3)
(-84.214 23.2516 35549)
(-87.1831 -43.1787 33918.4)
(-137.318 -58.5547 31884.4)
(-124.095 -53.1309 32138.4)
(-135.705 -19.5233 32947.8)
(-159.449 35.7718 34314)
(-210.992 198.347 37873.8)
(-246.893 371.513 41570.9)
(-212.048 479.341 43924.1)
(-151.828 537.134 45202.3)
(-96.9927 553.235 45390.6)
(-52.6231 542.895 44473.5)
(-33.8199 500.667 42425.9)
(-48.8792 431.791 39229)
(-90.5429 330.782 35339.3)
(-155.129 228.313 31589.1)
(-260.32 69.1448 28445.5)
(-423.763 -36.4903 27164.3)
(-609.404 -184.089 26480)
(-703.208 -260.732 23901.9)
(-160.668 -358.087 20908.2)
(-256.269 -282.187 23475.6)
(-252.846 -171.29 24278.2)
(-226.106 -36.5437 24127.3)
(-154.154 26.3362 23467.4)
(-18.1511 68.92 23052.4)
(244.977 93.8087 32154)
(376.611 73.9477 36406.3)
(442.832 67.0259 40684.3)
(472.611 55.6444 43917.7)
(450.435 14.6937 45993.3)
(409.992 -44.1594 46624.8)
(340.011 -102.216 45777.2)
(253.077 -153.854 43358.3)
(141.362 -167.897 38857.9)
(-24.8192 -175.615 34463.2)
(-139.545 -199.27 31465.8)
(-203.332 -160.97 32337.2)
(-199.096 -35.6568 36034.3)
(-161.197 28.8981 37978.8)
(-134.202 35.8586 38637.7)
(-163.572 2.88389 38417.2)
(-190.934 24.2882 38182.5)
(-217.203 84.6042 39033.5)
(-231.728 148.696 40597.6)
(-249.532 256.76 43596.8)
(-263.534 341.86 45927.3)
(-240.499 423.009 47434.6)
(-192.172 480.57 48186.9)
(-131.631 510.92 48130.8)
(-77.7504 510.331 47194.9)
(-28.4406 489.174 45268.2)
(-6.65042 435.972 42178.1)
(-16.0318 355.972 37677.8)
(-13.7641 228.684 32341)
(-43.4573 67.4026 26071.8)
(-148.523 -8.09056 24145)
(-335.778 -81.5717 24610.3)
(-559.817 -226.066 25215.7)
(-674.618 -286.258 23252.1)
(-145.368 -234.312 19915)
(-234.584 -81.1485 21641.2)
(-291.851 59.4235 22319.5)
(-300.346 200.388 22581)
(-288.941 289.109 22789.5)
(-249.135 297.095 23128.8)
(-183.055 243.272 23488.4)
(144.928 156.614 31782.2)
(338.779 119.046 38417.6)
(403.795 105.947 42929)
(405.313 74.5284 46526.8)
(367.651 17.2644 48646.6)
(316.008 -47.2005 49401.2)
(254.71 -94.1715 49045)
(173.854 -146.346 47434.7)
(80.5465 -168.46 43712.8)
(-51.8488 -179.93 40332.9)
(-139.079 -114.887 40590.8)
(-162.557 -24.0439 42918.7)
(-150.064 22.2906 42799.7)
(-139.265 38.2161 43062.8)
(-160.578 46.6007 43681)
(-189.337 93.0214 44979)
(-208.158 150.522 46490.8)
(-220.157 223.342 48550.9)
(-225.862 285.227 50059.6)
(-213.033 345.409 50903.2)
(-190.151 404.219 51170)
(-147.739 440.18 50851.1)
(-98.7304 455.905 49862)
(-47.4494 442.952 48099.6)
(1.74692 406.911 45330.8)
(28.5358 345.546 41165.1)
(34.4825 204.817 34875.4)
(84.8698 -31.8656 25191)
(84.9806 -31.6772 24029.7)
(8.8826 -57.1085 22737.7)
(-225.221 -125.032 22772.1)
(-487.273 -266.678 24042.5)
(-631.352 -299.461 22470.4)
(-116.148 -15.197 25453)
(-197.617 155.561 27432.8)
(-301.902 306.315 28687)
(-376.528 421.198 29425.5)
(-417.996 449.66 29522.8)
(-391.65 405.916 28858.3)
(-368.289 288.161 27394.6)
(-299.927 146.997 26816.1)
(103.667 113.688 34001.8)
(300.61 148.705 40445)
(336.903 121.654 45611.3)
(314.839 74.1591 49300.5)
(272.751 8.30466 51203.3)
(218.253 -49.1402 52046.7)
(164.284 -96.1298 51985.3)
(84.7477 -130.869 50768.4)
(5.47409 -137.034 49012.8)
(-82.2825 -87.355 48642.3)
(-107.586 -32.5467 48841.2)
(-128.297 9.30617 47305.9)
(-123.946 38.8814 47569)
(-154.182 71.7008 48847.8)
(-169.381 121.476 50572.7)
(-185.676 186.956 52223.9)
(-188.686 242.479 53355.5)
(-181.915 305.352 53882.4)
(-171.157 353.145 53904.8)
(-146.494 394.616 53439.4)
(-114.372 411.009 52453.3)
(-69.6228 408.585 50850.1)
(-26.7485 371.899 48494.2)
(35.3115 320.099 45044)
(37.398 207.092 39559.7)
(62.8356 -81.8894 28505.8)
(166.848 -133.597 27767)
(245.946 -91.0319 27046.3)
(192.509 -130.396 24347.4)
(-39.9318 -171.837 21939.9)
(-358.86 -277.864 22688.7)
(-568.537 -295.006 21601.6)
(-6.38387 106.487 34658.3)
(-78.6644 185.901 40154.6)
(-152.766 293.106 41816.2)
(-240.808 369.098 39501.2)
(-356.87 367.653 36180.9)
(-391.086 285.522 32854.6)
(-371.975 157.861 29489.2)
(-355.451 56.2908 27507.1)
(-220.884 49.4981 28733.3)
(139 134.545 36051.6)
(249.25 173.324 43127.7)
(251.038 126.938 48855.7)
(217.4 71.0738 51997.6)
(178.069 17.5297 53739.9)
(129.134 -29.7726 54675)
(80.7264 -55.8984 54868.3)
(19.2457 -69.5951 54352.6)
(-34.5512 -44.4159 53962.8)
(-61.4342 -10.0054 53377.5)
(-81.1074 24.565 51513.3)
(-84.6793 58.3744 51811.7)
(-99.9285 93.9149 53292)
(-108.793 142.991 55037.5)
(-117.355 192.048 56024.3)
(-122.07 243.617 56399.8)
(-127.472 292.593 56288.3)
(-122.776 331.235 55756.1)
(-116.543 361.423 54771.2)
(-94.2803 361.929 53331.3)
(-71.2294 343.472 51324.7)
(-24.5866 279.964 48614.9)
(5.93164 215.623 44656.4)
(-24.6833 -7.73242 36302.8)
(-6.37593 -181.441 29796.4)
(113.948 -189.085 31760.7)
(265.17 -181.779 33466.8)
(304.577 -172.278 30933.1)
(165.925 -188.444 24689.2)
(-183.042 -256.097 21444.1)
(-497.263 -278.743 20586.2)
(60.7774 84.6461 37526.3)
(52.3151 139.761 44891.3)
(15.2352 224.84 45118.8)
(-13.0481 270.151 39705.8)
(-180.114 281.726 35216.1)
(-304.769 156.462 32186.2)
(-346.464 45.8169 29173.5)
(-351.865 -54.174 27362.1)
(-265.928 15.6182 27812.9)
(-77.547 121.047 31198.7)
(140.853 180.609 38635.6)
(171.462 170.517 47182.9)
(165.618 105.587 51873.1)
(128.658 53.2045 54565.1)
(103.775 2.44138 56140.4)
(58.2185 -28.7282 57004.7)
(29.508 -45.9619 57185.2)
(-16.0072 -32.7642 57026.9)
(-29.3803 -13.5975 56324.6)
(-57.0464 17.8955 54510.4)
(-60.1836 51.4041 54865.7)
(-78.7699 93.3888 56458.8)
(-81.4359 142.599 57699.5)
(-85.9555 201.99 58183.9)
(-86.2978 257.995 58139.8)
(-88.2482 313.341 57630.4)
(-91.3544 349.128 56714.7)
(-92.9998 366.258 55376.7)
(-92.6459 350.998 53680.2)
(-82.4528 301.48 51552.6)
(-53.2659 226.356 48785.2)
(-17.4344 103.939 44636.5)
(-49.0396 -98.5178 35733.5)
(-107.111 -214.846 30604.9)
(37.5587 -222.719 33653.1)
(185.769 -184.764 38400.5)
(263.652 -175.98 40821.7)
(238.081 -172.954 36736)
(17.1362 -199.63 25693.5)
(-392.969 -247.162 19710.4)
(67.7389 49.8356 40109.2)
(119.183 101.265 46849.8)
(99.099 155.474 46133.4)
(132.376 194.437 38451.9)
(16.3541 173.805 31564.8)
(-196.767 70.712 29754.5)
(-268.758 -62.62 27879.3)
(-329.642 -79.4661 26813.7)
(-296.698 -6.30379 27090.2)
(-165.755 138.598 28822.4)
(-20.2578 197.854 34470.1)
(73.4782 198.232 43459.4)
(83.3247 148.253 50541.5)
(75.7296 94.9069 54562.1)
(56.1937 46.3274 56981.8)
(35.9467 20.6416 58293.3)
(15.3831 4.5507 59003.9)
(-4.15078 9.33793 59033.1)
(-9.68721 23.7265 58476.4)
(-14.5078 47.8833 56886.6)
(-9.90651 77.8775 57104.9)
(-9.66973 111.4 58527.5)
(-6.00372 155.044 59372.7)
(-7.75922 204.717 59445.1)
(-16.3109 257.376 58968.3)
(-40.2824 307.889 57988.3)
(-66.2448 339.431 56630.2)
(-97.2439 352.087 54961.5)
(-119.563 320.112 53178.9)
(-133.63 253.406 51190)
(-129.316 136.343 48707.7)
(-118.328 9.74995 44871.9)
(-127.92 -170.74 36841.9)
(-170.243 -229.031 31025.9)
(-55.3677 -218.766 33433.7)
(85.3809 -148.193 39013)
(155.457 -123.043 45560.1)
(144.431 -108.409 48181.5)
(31.673 -135.78 38038.5)
(-256.727 -232.197 21737.9)
(67.0651 -14.9878 41629.6)
(145.488 75.5112 47947.7)
(169.806 98.4248 47040.1)
(171.314 143.083 37880.3)
(201.234 102.061 31619.1)
(-81.4038 11.2902 27241.8)
(-217.555 -66.8888 26637.3)
(-267.105 -55.6326 26233.7)
(-280.392 48.1685 26480.5)
(-232.295 154.653 27570.2)
(-129.156 208.173 31736.3)
(-48.7497 194.905 40469.3)
(10.0106 142.857 48932.4)
(19.272 89.5876 54144.3)
(31.6063 41.9032 57103.3)
(17.1032 11.744 58891)
(18.6083 -10.137 59794.3)
(1.71333 -12.0832 59977.8)
(6.47027 -7.52239 59412.3)
(-1.58966 12.7417 57770.6)
(6.63822 38.7247 58029.2)
(5.38704 78.73 59499.6)
(16.0903 134.777 60009.7)
(20.2855 209.881 59683.6)
(18.7177 290.554 58743)
(-0.754094 359.364 57220.2)
(-26.9959 386.03 55402.4)
(-62.5021 371.289 53505)
(-108.402 305.464 51804.9)
(-156.081 206.069 50285.4)
(-155.42 75.587 48402.3)
(-147.175 -73.9902 45191.5)
(-148.227 -221.074 37929.9)
(-192.226 -242.84 31840.8)
(-96.2443 -205.043 33008.9)
(28.1369 -91.8161 38830.6)
(117.362 -58.9538 47511.4)
(103.202 -29.1433 53334.3)
(-32.634 -84.629 45418.8)
(-216.362 -222.286 28946.3)
(15.701 -67.4599 41002.9)
(137.277 58.1645 48214.8)
(177.084 82.1515 48837.3)
(188.84 79.1038 38120.4)
(226.991 61.4357 30454.4)
(167.254 -27.4396 28196.8)
(-152.651 -38.5782 26226.3)
(-251.563 17.7898 26205)
(-264.892 125.803 26668)
(-242.847 189.278 28164.3)
(-200.5 181.64 32525.6)
(-143.448 147.111 40380.7)
(-86.1102 113.901 48244.7)
(-47.2231 85.214 53540.7)
(-27.3255 53.7923 56822.8)
(-18.0657 35.0047 58853.7)
(-10.382 21.5606 60026.1)
(-5.00383 21.9552 60392.9)
(10.0749 30.2216 59920.3)
(27.4575 48.9154 58340.5)
(54.3932 70.8441 58387.1)
(81.7494 102.781 59725)
(113.702 148.733 59907.1)
(132.389 212.076 59012.2)
(120.134 280.864 57224)
(68.0857 323.327 54783)
(16.0028 313.967 52425.7)
(-37.6562 280.148 50409.7)
(-86.5662 208.306 48975.7)
(-152.171 89.406 47962.5)
(-174.832 -102.552 46735.7)
(-168.968 -243.253 43805.7)
(-147.971 -305.705 38150.2)
(-167.434 -269.385 32936.2)
(-111.366 -186.568 33012.7)
(-25.6702 -58.9005 38921)
(55.329 -28.4389 48972.1)
(62.0975 31.306 53964.4)
(-42.7 -70.6302 44897.9)
(-241.761 -233.718 34280)
(-48.7234 -42.0338 35387.6)
(96.5179 79.4402 46065.4)
(156.412 53.9538 50592)
(161.555 39.7229 38161.4)
(219.948 -20.3844 30093.3)
(245.341 -54.4365 28879.1)
(188.491 -19.9122 28863.3)
(-111.534 47.8788 29107.1)
(-164.102 58.6703 29652.5)
(-198.027 67.3729 31898.8)
(-178.414 44.0323 36595.7)
(-156.822 46.5441 42849)
(-97.869 42.241 48523.9)
(-65.0677 31.7443 52978.3)
(-27.5185 8.84226 56130.2)
(-18.1571 -9.41672 58252.3)
(3.49878 -28.0464 59438.2)
(8.96166 -36.8951 59704.7)
(30.1976 -43.4917 58920.8)
(42.5142 -41.1388 57331.1)
(69.8904 -32.1831 57652.1)
(93.3941 1.95993 58833.8)
(128.531 71.1768 58522.1)
(158.775 183.236 56935.7)
(180.249 282.752 54090.2)
(188.636 286.806 51002.5)
(214.306 194.896 48643.3)
(251.622 51.9863 46842.3)
(235.62 -112.409 45742.2)
(144.282 -305.012 44853)
(43.8311 -419.217 43876.6)
(-13.3837 -431.346 41467.2)
(-36.7705 -374.882 37588.4)
(-73.1049 -280.78 34243.1)
(-50.9914 -156.199 34988.3)
(22.1678 -63.3524 43839.6)
(134.733 -59.2905 51839.5)
(141.206 -50.7948 44279.8)
(51.5463 -185.528 35652.2)
(-178.269 -258 35486.8)
(-77.6795 31.5003 29898.8)
(-49.7856 115.832 37341.5)
(88.5518 39.5489 50387.4)
(129.825 -42.219 36436.6)
(203.645 -112.67 29301.3)
(249.493 -93.9272 28475.2)
(265.897 -24.154 28580.8)
(149.915 11.4382 30071)
(-47.511 -11.9679 31931)
(-106.214 6.3592 34396.5)
(-143.713 12.758 37768.8)
(-151.301 25.4911 42010.5)
(-132.678 26.1169 46487.4)
(-106.258 23.5762 50695.8)
(-77.6557 9.07649 54098.7)
(-56.4394 1.36957 56503.2)
(-35.9496 -8.81407 57922.4)
(-20.1203 -8.32905 58380.2)
(4.31096 -5.10173 57714.7)
(35.1719 10.1765 55762.2)
(86.4101 28.8453 55983.8)
(161.778 59.2032 57493.1)
(274.048 89.3576 56673.5)
(391.745 77.2683 53351.3)
(467.443 -47.4812 48769.6)
(484.051 -266.775 45241.1)
(478.296 -481.725 43307.6)
(502.382 -605.634 42244.4)
(537.717 -666.664 41672)
(496.593 -669.655 41357.3)
(380.812 -624.996 40671.9)
(246.474 -537.262 39334.8)
(152.044 -413.125 37773.5)
(68.7059 -282.267 37379.5)
(15.4861 -177.844 40555.4)
(20.0225 -161.308 48553.1)
(79.7528 -174.032 52100.2)
(165.505 -157.367 41457.5)
(191.629 -191.696 30990.2)
(48.8058 -215.21 32181.7)
(20.7622 154.109 31219.1)
(-107.695 107.74 34518.4)
(-74.5403 -76.4363 48465.9)
(7.33619 -114.492 34721.2)
(140.643 -127.168 28058)
(243.683 -48.9909 27003.6)
(281.59 65.6005 26627.2)
(161.566 71.4527 27618.7)
(47.3264 69.97 30941.5)
(-79.0304 41.2754 34390.7)
(-115.156 13.0672 37674.1)
(-140.514 6.66854 42027.1)
(-116.417 -9.75374 46750.6)
(-101.328 -21.3095 51079.6)
(-65.0417 -38.4676 54409.2)
(-44.6242 -50.2856 56735.1)
(-11.389 -65.7472 58012.3)
(9.71381 -79.7801 58191.7)
(44.8036 -102.676 57177)
(85.4386 -140.065 55771.4)
(158.723 -206.469 56188.1)
(253.244 -303.124 55390.1)
(387.863 -444.939 50831.9)
(590.632 -652.213 45486.4)
(850.107 -890.878 43136.2)
(1045.24 -1053.79 42600.9)
(1112.92 -1081.57 42276.2)
(1046.51 -999.141 41887.3)
(943.778 -893.559 41445.7)
(830.351 -801.505 41054.5)
(699.73 -703.547 40733.4)
(547.975 -565.67 40585.5)
(412.612 -407.931 40970.3)
(278.49 -271.742 42615.1)
(157.049 -190.144 46555.4)
(66.8777 -159.431 52528.7)
(22.2599 -135.216 56799.2)
(12.9903 -120.95 51384.3)
(93.5097 -158.325 33382.6)
(193.818 -2.97412 30513.6)
(141.627 174.672 36604.6)
(-79.5473 -2.59907 42232.5)
(-124.687 -112.436 52159.8)
(-128.641 -78.9831 39316.3)
(-8.25962 -82.7143 29761.5)
(149.196 44.4061 27261.2)
(284.837 156.768 26679.9)
(188.974 184.823 26418)
(-7.7384 140.311 28239.2)
(-111.702 96.8098 31834.1)
(-166.576 45.4625 36683.5)
(-177.549 7.5619 42286.8)
(-162.839 -28.5589 47835.1)
(-136.982 -39.4777 52430.5)
(-106.689 -53.7653 55773.4)
(-84.5278 -54.4638 58031.9)
(-64.6059 -64.9094 59345.9)
(-55.7703 -69.348 59747.1)
(-51.0673 -90.0986 59092.2)
(-56.5346 -115.096 57438.9)
(-58.866 -164.688 57789.5)
(-75.2625 -230.678 58866.2)
(-99.525 -330.547 57568.9)
(-95.2168 -427.8 54044.6)
(8.03813 -488.105 49800)
(217.681 -496.438 46578.7)
(457.174 -448.17 44342.2)
(657.258 -434.442 42716.1)
(729.862 -466.166 41819.2)
(711.209 -473.507 40631.8)
(642.365 -390.468 39037.2)
(542.897 -272.076 37031.3)
(430.499 -150.463 34982.6)
(297.994 -50.6371 34127)
(176.197 -17.614 36921.7)
(68.8413 -20.8498 45859.8)
(46.6565 -80.7812 55317.8)
(-41.7251 -108.769 55651.3)
(22.9971 -113.32 39388.8)
(137.869 127.914 33276.7)
(199.44 125.709 40231.5)
(-36.4816 -23.176 46830.7)
(-139.82 -69.1715 52654.1)
(-194.173 -22.6594 42424.2)
(-118.585 -28.2257 32967.7)
(27.8101 121.204 29371)
(238.499 221.802 28130.4)
(254.359 237.847 26827.7)
(86.7789 208.885 27942.1)
(-114.531 105.409 31150.7)
(-173.925 9.90436 37028.3)
(-192.15 -55.19 43879.1)
(-159.569 -83.7507 49751.7)
(-131.371 -92.3759 54087.5)
(-90.2858 -94.1467 57074)
(-66.1272 -91.3642 59018.8)
(-37.7957 -91.2649 60026.4)
(-26.6308 -91.069 60208.6)
(-15.1019 -99.333 59455.7)
(-21.5446 -110.741 58030)
(-24.3355 -131.071 58437.6)
(-52.3268 -148.962 59689)
(-113.248 -176.322 59435.7)
(-212.153 -194.616 57903.4)
(-294.689 -192.064 55260.9)
(-291.043 -164.191 52590.3)
(-204.151 -156.827 50753.2)
(-60.3727 -188.841 49505)
(144.797 -193.79 47584.9)
(329.738 -143.676 44960.3)
(434.77 -80.8348 42483.9)
(441.2 -26.8765 38782.3)
(409.494 38.9162 34102.5)
(305.943 79.6031 30902.9)
(202.762 34.5389 32607.5)
(62.4843 -60.83 40709.3)
(54.695 -141.937 52472.9)
(-6.26321 -147.81 56188.6)
(22.7335 -79.5229 42859.8)
(158.479 187.239 34256.3)
(174.081 110.536 39372.7)
(-22.4939 20.12 47636.4)
(-157.101 34.4011 51231)
(-255.441 57.3816 44200.6)
(-231.18 82.0227 36677.7)
(-106.753 228.969 33134.8)
(89.9979 282.972 30451.6)
(212.814 298.309 27962.1)
(117.054 229.164 28292.3)
(-89.8497 93.6841 32090.6)
(-190.536 -53.7821 38475.3)
(-203.628 -110.157 45616)
(-172.889 -136.658 51191.6)
(-140.69 -126.464 55058.3)
(-103.539 -124.734 57632.1)
(-82.0552 -108.918 59223.1)
(-63.4386 -106.792 60060)
(-61.3311 -97.863 60203)
(-64.2754 -105.706 59522.4)
(-84.8857 -112.263 57962.1)
(-100.172 -132.946 58251.1)
(-127.448 -142.371 59857.7)
(-169.576 -162.946 60075.5)
(-230.948 -164.6 59332.6)
(-289.593 -136.614 57850.8)
(-314.997 -67.5935 55875.7)
(-278.077 4.87239 54004)
(-229.043 66.9879 52326.6)
(-170.42 92.6585 50760)
(-50.3846 115.209 49053.8)
(135.834 125.601 46429.2)
(286.579 115.369 41207.4)
(354.61 141.53 34077.2)
(306.145 150.91 29865)
(248.624 52.5694 31711.4)
(130.018 -58.4387 36687.8)
(76.265 -112.104 45873.1)
(45.3087 -148.199 52707.8)
(43.6761 -35.5187 45468.6)
(163.863 160.153 31280.1)
(143.746 144.042 33453.5)
(-34.4857 133.435 43382.1)
(-200.48 187.155 47440)
(-307.723 195.705 44886)
(-350.932 251.977 40158)
(-251.4 330.453 36506)
(-86.3736 348.722 32921.1)
(89.5511 338.62 29423.8)
(110.911 247.019 28639.6)
(-93.8567 53.026 33050.7)
(-186.845 -116.408 40315.3)
(-195.56 -183.002 47555.8)
(-152.565 -183.946 52489.2)
(-115.264 -170.866 55552.9)
(-74.7404 -152.688 57553.9)
(-50.2122 -131.494 58778.2)
(-28.5642 -113.347 59370.7)
(-25.531 -95.2043 59321.2)
(-26.0177 -85.281 58536.2)
(-50.8593 -77.9341 57001.5)
(-68.9244 -77.5047 57311.9)
(-99.6126 -67.2947 59128.2)
(-147.366 -66.9817 59615)
(-213.178 -59.0483 59316)
(-283.174 -41.9032 58541.5)
(-338.139 -7.60462 57313.9)
(-347.944 26.679 55860.7)
(-318.47 52.4512 54245.9)
(-246.976 78.2612 52474.6)
(-166.271 98.3241 50446.7)
(-48.8619 76.9701 47886.2)
(122.928 68.5501 42534.3)
(289.385 150.544 33383.2)
(304.305 121.551 29663.1)
(284.135 -18.3688 32876.6)
(217.727 -151.373 38329.8)
(162.28 -227.93 44631.5)
(132.078 -223.51 47619.6)
(123.401 -98.5293 39309)
(194.253 184.608 23712.5)
(210.715 198.982 24964.3)
(-38.693 244.413 30970.5)
(-253.737 322.411 35815.8)
(-417.846 368.962 39071.8)
(-485.004 416.043 39318.6)
(-427.515 426.439 37441.7)
(-285.772 389.64 34262.8)
(-89.0597 339.697 30485.7)
(-8.00918 220.148 29076.5)
(-121.991 -4.96938 34253)
(-198.742 -222.827 43181)
(-187.15 -239.806 49163.9)
(-135.87 -237.506 53001.2)
(-98.341 -207.25 55416.9)
(-60.6673 -184.836 56951.9)
(-40.3816 -151.5 57866.7)
(-25.8751 -129.243 58231.8)
(-29.9217 -102.871 58045.3)
(-38.673 -88.7741 57186.3)
(-71.2639 -74.4416 55475.5)
(-97.4178 -75.1263 55827.5)
(-122.371 -58.0388 57709.6)
(-155.977 -54.5765 58457.7)
(-197.547 -39.1109 58428.3)
(-239.384 -18.1819 57961.8)
(-278.874 15.5886 57095.4)
(-297.698 50.565 55915.2)
(-298.316 77.3311 54419)
(-274.275 86.8154 52623.3)
(-211.621 79.2765 50394.5)
(-123.601 67.086 47440.4)
(29.053 70.2278 42504)
(223.632 93.4053 32304.7)
(278.322 48.5181 29319.2)
(300.383 -117.644 32606.6)
(287.631 -251.627 36491.7)
(276.098 -316.206 38141)
(228.597 -267.389 34830.9)
(200.717 -49.7521 26399.7)
(220.111 335.96 20237.2)
(370.385 244.743 21032.4)
(149.318 328.075 23289.7)
(-86.4474 377.684 24613.9)
(-333.851 396.407 26351)
(-491.187 405.542 28622.8)
(-527.412 396.099 30718.6)
(-445.998 340.169 31115)
(-265.706 295.465 29613.7)
(-121.397 139.723 29126.5)
(-167.138 -196.079 38072.2)
(-195.385 -309.548 45449.8)
(-146.482 -304.315 50038.1)
(-96.1337 -280.765 52910.1)
(-51.2879 -242.38 54696.2)
(-14.8767 -202.731 55775)
(7.58598 -161.355 56309.8)
(21.4824 -121.915 56375.1)
(17.7261 -85.4109 55926.9)
(9.83754 -52.1214 54876.6)
(-32.2724 -24.0653 53016)
(-62.305 -14.5853 53503.5)
(-91.1637 4.5852 55565.1)
(-132.022 15.6319 56557.5)
(-177.014 29.3158 56761)
(-226.905 43.7204 56555.4)
(-273.048 58.0558 55993.5)
(-304.837 69.1924 55108.6)
(-320.72 73.8166 53868.9)
(-311.122 67.0005 52246.8)
(-281.605 53.5091 50129.5)
(-220.871 7.12405 47309)
(-129.546 -24.3238 43008.7)
(138.051 -9.56367 31279.5)
(241.763 -71.0103 28146.3)
(248.026 -227.12 29464.7)
(249.133 -335.613 29643.6)
(240.536 -327.463 27115.1)
(244.443 -147.906 23712.2)
(273.272 164.545 22169.6)
(251.239 449.215 20917.4)
(507.961 279.424 21842)
(378.091 380.711 24525.1)
(185.95 382.438 25107.3)
(-51.6925 355.994 24816.4)
(-235.521 304.721 24366.2)
(-380.437 245.853 24676.8)
(-378.743 163.211 25502.6)
(-292.617 84.5479 25835.1)
(-181.426 -192.954 33292.1)
(-175.543 -369.331 41629.7)
(-152.807 -392.973 46873.2)
(-100.7 -364.825 50213.6)
(-51.1801 -323.927 52213.3)
(-9.18123 -271.74 53382.8)
(21.6563 -224.434 53959.4)
(38.6789 -172.141 54090.1)
(46.3937 -128.052 53780.8)
(36.2757 -84.2219 52971.6)
(24.5392 -39.0673 51205.1)
(-29.9165 -3.5987 49166.4)
(-75.7876 -6.01174 50346.5)