/*--------------------------------*- C++ -*----------------------------------*\
  =========                 |
  \\      /  F ield         | OpenFOAM: The Open Source CFD Toolbox
   \\    /   O peration     | Website:  https://openfoam.org
    \\  /    A nd           | Version:  11
     \\/     M anipulation  |
\*---------------------------------------------------------------------------*/
FoamFile
{
    format      ascii;
    class       volScalarField;
    location    "400";
    object      p;
}
// * * * * * * * * * * * * * * * * * * * * * * * * * * * * * * * * * * * * * //

dimensions      [0 2 -2 0 0 0 0];

internalField   nonuniform List<scalar> 
128000
(
-247097
-247922
-334605
-314490
-428851
-437735
-511866
-510038
-497805
-427545
-374611
-318104
-300654
-366463
-386764
-422388
-428858
-461315
-472708
-471811
-461108
-485529
-454794
-417137
-371816
-330083
-271026
-284194
-351189
-422591
-513451
-589246
-588118
-582064
-466804
-447845
-291840
-299393
-195508
-168595
-246169
-175072
-258217
-241327
-334449
-390290
-481952
-560604
-595147
-547119
-457371
-390242
-297793
-384399
-393832
-447656
-449772
-476999
-491041
-491483
-475894
-506909
-462237
-436511
-377526
-339945
-271984
-360831
-461346
-568498
-684671
-710084
-638099
-531528
-385709
-315992
-176047
-194024
-77726.1
-141637
-333119
-257610
-276315
-264333
-320256
-359629
-444296
-513932
-609430
-617682
-542223
-495424
-400459
-450869
-458043
-479788
-482189
-490348
-476688
-481424
-470026
-499421
-497253
-488711
-446058
-422617
-377735
-486455
-568301
-681224
-758384
-702745
-580791
-473652
-351923
-293789
-206323
-209610
-170798
-258781
-310752
-239947
-260004
-229536
-282071
-333495
-412698
-519248
-603012
-693214
-615399
-596844
-504587
-560420
-527519
-564469
-524600
-525244
-512053
-513896
-518104
-543756
-549912
-555537
-532371
-527339
-501182
-624150
-711379
-814845
-832757
-714712
-576315
-436209
-303249
-233608
-139219
-171839
-136900
-212646
-424190
-334885
-318014
-283465
-283827
-316637
-381235
-452980
-581780
-638555
-679772
-622499
-586742
-616943
-644101
-599122
-587023
-546010
-527213
-522031
-548005
-589510
-629053
-651306
-648936
-661560
-641652
-702753
-756124
-826000
-783467
-651371
-498108
-373900
-273565
-223397
-195747
-246099
-242291
-359118
-425290
-385330
-351858
-329876
-312539
-329646
-370347
-446227
-502753
-657266
-586376
-633456
-574485
-607783
-614470
-638753
-588725
-536128
-543535
-541854
-569828
-599215
-630152
-689541
-708749
-673323
-661082
-689526
-768839
-763372
-766374
-580647
-473259
-351693
-278099
-243868
-235506
-275379
-284089
-361393
-496363
-473465
-438150
-407133
-378012
-370806
-380300
-426474
-472268
-539841
-586725
-555980
-540236
-576515
-584926
-570574
-549347
-510673
-508491
-509221
-505243
-548914
-595556
-621361
-633341
-616774
-609407
-622893
-639791
-699691
-614202
-504629
-421706
-338359
-309484
-299195
-328247
-366563
-395561
-476102
-484525
-541839
-496314
-506184
-438673
-431637
-419917
-440746
-470403
-516180
-569094
-537402
-561404
-503480
-576554
-554354
-550915
-508509
-520213
-523765
-498977
-530431
-549798
-580399
-584445
-571529
-535744
-559304
-611161
-620437
-560155
-479822
-424792
-373914
-371962
-376821
-415902
-441556
-480526
-504431
-469261
-567340
-593259
-584962
-577553
-493792
-467456
-465999
-461733
-488627
-506793
-549498
-507037
-580643
-536217
-557991
-527760
-515203
-491980
-508916
-472806
-499234
-527267
-532157
-545408
-506651
-545630
-507352
-584751
-542262
-506773
-452981
-430356
-414723
-439889
-459062
-521945
-520497
-571800
-550654
-394000
-499654
-571218
-649052
-599633
-614021
-524643
-497972
-483520
-470182
-492323
-484126
-527860
-502472
-572820
-536693
-543172
-503751
-507117
-502130
-490121
-490559
-521375
-540510
-542410
-548456
-508558
-518467
-526202
-500950
-483824
-456853
-460955
-467751
-505509
-541767
-567327
-587511
-603638
-540606
-355427
-430068
-512234
-574867
-644987
-548908
-559317
-552350
-497801
-483642
-456000
-468573
-450204
-486925
-470709
-497075
-473892
-467600
-452933
-465253
-454236
-469581
-482840
-486914
-503464
-476409
-499988
-479420
-505814
-481345
-483588
-472915
-486976
-511630
-542353
-550145
-608704
-591961
-603365
-520808
-292702
-346550
-453163
-545247
-579277
-578698
-527707
-499214
-531338
-468772
-471022
-437246
-457483
-436820
-471189
-449208
-470605
-451898
-464644
-464726
-468384
-471570
-477080
-482111
-478928
-484012
-479100
-481305
-491065
-476720
-488953
-474698
-506556
-507074
-531940
-558763
-592811
-597566
-572828
-482332
-307883
-305080
-398792
-493154
-571655
-551901
-517627
-540187
-495345
-505840
-443137
-439276
-411268
-422156
-409074
-420951
-412713
-419212
-417169
-427101
-425477
-434196
-440633
-444835
-463838
-463692
-491600
-492576
-515471
-506105
-509269
-504632
-490049
-516941
-535031
-555347
-593062
-558012
-513244
-435652
-370678
-384069
-444152
-531678
-603670
-582262
-561089
-481753
-574203
-485716
-488303
-428580
-438876
-412916
-433374
-416700
-434906
-425749
-438111
-435627
-438950
-438658
-439442
-443956
-452111
-464109
-485190
-495919
-521343
-502420
-524461
-467717
-521960
-474970
-543033
-537326
-540011
-484063
-454381
-385275
-379186
-391546
-450866
-513579
-617405
-587554
-564244
-551159
-524787
-541971
-458857
-441675
-402951
-403126
-389476
-394266
-387496
-391295
-388401
-392450
-392774
-399588
-411084
-425765
-457723
-486536
-537135
-564406
-590522
-579827
-564467
-533766
-518148
-523589
-557585
-539376
-530404
-452646
-396908
-348959
-406446
-430727
-459602
-534118
-560774
-619915
-548713
-533443
-550218
-516497
-496963
-435080
-436666
-409691
-423867
-409323
-421397
-411058
-417983
-410696
-411389
-407617
-410626
-417825
-440480
-470236
-524131
-560040
-602751
-590631
-592450
-520029
-532452
-499388
-548859
-510335
-499153
-411849
-373998
-333086
-411922
-430710
-467361
-492719
-569491
-534096
-529792
-517242
-506599
-506280
-456311
-432824
-402721
-395231
-382131
-379202
-371203
-366895
-360204
-356529
-354813
-356882
-370512
-395400
-453001
-532596
-645952
-720183
-754297
-728667
-687829
-595866
-559779
-525701
-544683
-502354
-493200
-420047
-392364
-363180
-437026
-449679
-465395
-498489
-516821
-524572
-495001
-484093
-507410
-480665
-469908
-433893
-434948
-413548
-420796
-405603
-411213
-398612
-399693
-386776
-383069
-371998
-371265
-377401
-413150
-476540
-594361
-685223
-777719
-808203
-764439
-599958
-558193
-483727
-494530
-453313
-451710
-403119
-418589
-373828
-446216
-454571
-456344
-478413
-512648
-510741
-486114
-496302
-460167
-468287
-434572
-425012
-405039
-393019
-379529
-367550
-355614
-341560
-327135
-311172
-297508
-281566
-279819
-296194
-385223
-587921
-874913
-1.03399e+06
-1.04153e+06
-965150
-876949
-692873
-571147
-484332
-470522
-441528
-446607
-421073
-465334
-397582
-436351
-449903
-451401
-490576
-507902
-522703
-496780
-478519
-495867
-469840
-465865
-445356
-441015
-421983
-419982
-404856
-403675
-390187
-385492
-369524
-358439
-334974
-314831
-297340
-319372
-434429
-643925
-803840
-890299
-936864
-832512
-598842
-481720
-386292
-397675
-390266
-402418
-370075
-384285
-340547
-435633
-442926
-455580
-497991
-544364
-552568
-486731
-468895
-436715
-448967
-432971
-425684
-407241
-390315
-376499
-358995
-345002
-323976
-302143
-270280
-235113
-176364
-118433
-70286.1
-183562
-539679
-956347
-1.16432e+06
-1.0498e+06
-860392
-737907
-545017
-440374
-363962
-387564
-390420
-425325
-387155
-429690
-359513
-448386
-466245
-472246
-524819
-585651
-582522
-547931
-512937
-502089
-480489
-469888
-453519
-439085
-423661
-415393
-403758
-398718
-387874
-380486
-367200
-355957
-335064
-319358
-309332
-361580
-498970
-740205
-827677
-900683
-930710
-791486
-612565
-499617
-404378
-411032
-400985
-425116
-377515
-411090
-370220
-415380
-424656
-464007
-519913
-605751
-614414
-575643
-527312
-503043
-491179
-462340
-434241
-412001
-388317
-376359
-358744
-350520
-334610
-324919
-308407
-299126
-285421
-289413
-313563
-408275
-613943
-897501
-1.0908e+06
-1.00779e+06
-848111
-831698
-686099
-606612
-510430
-507842
-469387
-477996
-407151
-412832
-387053
-369917
-385954
-441574
-528017
-621235
-678839
-608262
-563560
-522324
-525035
-477290
-459695
-428354
-418310
-404995
-400335
-393960
-389760
-384501
-379969
-376622
-372693
-376589
-389511
-431536
-497478
-607341
-682582
-727534
-780927
-717383
-626390
-576664
-525747
-537608
-510653
-490782
-403524
-369140
-345371
-307910
-315784
-390287
-488630
-616110
-661958
-598924
-549011
-509132
-500831
-466380
-426229
-404617
-381270
-374053
-360784
-359472
-350661
-351309
-346444
-351517
-356099
-375093
-405287
-462909
-546582
-650276
-729851
-741124
-699328
-682073
-614156
-588695
-568189
-586440
-563392
-540032
-444263
-381651
-349340
-270010
-274305
-370642
-490641
-629547
-645686
-591777
-539924
-473608
-515398
-441115
-440076
-403068
-403260
-389436
-392632
-387455
-390320
-386859
-390463
-389323
-394904
-400595
-413879
-438513
-470345
-517587
-556684
-581273
-592516
-575839
-547134
-528896
-531664
-565260
-561824
-535874
-438365
-355479
-321345
-215591
-233405
-340314
-472757
-602609
-626702
-566604
-501169
-499994
-458288
-438356
-401713
-387657
-370412
-369806
-362519
-366597
-362973
-367833
-369669
-379280
-387375
-403748
-423004
-452952
-489019
-531420
-566710
-588243
-582872
-583884
-550195
-551504
-548701
-577361
-581720
-571873
-498747
-457250
-384249
-261550
-353918
-480684
-634308
-703012
-691539
-618091
-530219
-483159
-476683
-419116
-410353
-382634
-388571
-379258
-389052
-385145
-393104
-388898
-399615
-395433
-407138
-410536
-420520
-434245
-447409
-470918
-487946
-508766
-512816
-526287
-510337
-535185
-522261
-558111
-570456
-593773
-532865
-479037
-409648
-327612
-450083
-555819
-703449
-736693
-761049
-595284
-587448
-538816
-463649
-422741
-389218
-382153
-370340
-377397
-374131
-379626
-377474
-382170
-386476
-394439
-403211
-415095
-425470
-440109
-457346
-472189
-490229
-506048
-516989
-527223
-539094
-549381
-572366
-597872
-620200
-638613
-612071
-569798
-475426
-408550
-568336
-681024
-816857
-807438
-750461
-687035
-572922
-492932
-440205
-401036
-396027
-378922
-396271
-389981
-405113
-401602
-411743
-405128
-415386
-407052
-420661
-423959
-431413
-441678
-442888
-455069
-460437
-469275
-477029
-488074
-495341
-525878
-555423
-581660
-593887
-649329
-609016
-597897
-506496
-498461
-667575
-723762
-784648
-736377
-695806
-551327
-499240
-445635
-412156
-403647
-388565
-404663
-393506
-411368
-411423
-414442
-411777
-412479
-418003
-421028
-410223
-425807
-436274
-449398
-462520
-454879
-467149
-472158
-485113
-483714
-491775
-503995
-534602
-586428
-611165
-639258
-638060
-636092
-552465
-557238
-663372
-641723
-657997
-585752
-529136
-460523
-431902
-401174
-402616
-402507
-420310
-398850
-435491
-428238
-438680
-433240
-434668
-436608
-448846
-437657
-429135
-444205
-450988
-466931
-467496
-475978
-471206
-461548
-482504
-472384
-459742
-455608
-458160
-485667
-510621
-569264
-566193
-605618
-564542
-544358
-573781
-518055
-510503
-438062
-417040
-368122
-374187
-379808
-405062
-432149
-407486
-447723
-425961
-439612
-439189
-435726
-432438
-423248
-451878
-439213
-429900
-454198
-462605
-478610
-484546
-459900
-480454
-471403
-504291
-492355
-476534
-446184
-435532
-439498
-446612
-483650
-496453
-534436
-542952
-518466
-456070
-406452
-372946
-318149
-306632
-299951
-340526
-373899
-421030
-438605
-435090
-417193
-445001
-442095
-441591
-433841
-419834
-426978
-423525
-447808
-450946
-469230
-488195
-499612
-510464
-506070
-489639
-476256
-496068
-517934
-478186
-428365
-393373
-371834
-369908
-391332
-419057
-442403
-503224
-403571
-319397
-296542
-253149
-232053
-245581
-278287
-343454
-394770
-473474
-442771
-460131
-460757
-476381
-473865
-470605
-441461
-428867
-437380
-433217
-466640
-476236
-484669
-498222
-536577
-555995
-536176
-539983
-515666
-552147
-540479
-546790
-452842
-410271
-353551
-334930
-330474
-356819
-363944
-424129
-377957
-249967
-243365
-186806
-190713
-220827
-281634
-356028
-448502
-472095
-488970
-481111
-475697
-471576
-452365
-437538
-426941
-420558
-420481
-411980
-447113
-470827
-478623
-506087
-514960
-547926
-560365
-551440
-529808
-569214
-566792
-575197
-482523
-415368
-348792
-309039
-286266
-323727
-313812
-404411
-229305
-132971
-168357
-114809
-183656
-229826
-316801
-410216
-472584
-516260
-504034
-502404
-454501
-437418
-415195
-417420
-408717
-420294
-416000
-412907
-429449
-446537
-453010
-472220
-479206
-508239
-493831
-514249
-507807
-562466
-598000
-597096
-542138
-463743
-378579
-335097
-259727
-281697
-251970
-301679
-250246
-155887
-180915
-154047
-233496
-265908
-356966
-420611
-493032
-516226
-510196
-471570
-418457
-386853
-368832
-376802
-379083
-395852
-396555
-394491
-397397
-425611
-427424
-445349
-437076
-445760
-435083
-429395
-436154
-500443
-533169
-591034
-533814
-486043
-402642
-363098
-301445
-302045
-271260
-337175
-143367
-55626.5
-153742
-130548
-247800
-288019
-394697
-468374
-518767
-512897
-476674
-427592
-375636
-318603
-324578
-348986
-367532
-422728
-426994
-400371
-403731
-419344
-414853
-426691
-410933
-410536
-391184
-359205
-360013
-437266
-483319
-553171
-565265
-527186
-443842
-400452
-290528
-303542
-208589
-247146
-142342
-141090
-245589
-218101
-356196
-352266
-453211
-456432
-472255
-437411
-404655
-362388
-321147
-296822
-308407
-335500
-360926
-405881
-399747
-394344
-389661
-410856
-408797
-415394
-396479
-390300
-382630
-344883
-326977
-373078
-403776
-464736
-491037
-524939
-467213
-477123
-370385
-377831
-305584
-276357
-934584
-938795
-995972
-1.00441e+06
-1.08819e+06
-1.11483e+06
-1.16144e+06
-1.14066e+06
-1.07183e+06
-930301
-769389
-579606
-456442
-685624
-779984
-852855
-879108
-905631
-898505
-859111
-850172
-901888
-849519
-752877
-617690
-429888
-198227
-365991
-677197
-916859
-1.12107e+06
-1.26569e+06
-1.31287e+06
-1.31204e+06
-1.22617e+06
-1.17899e+06
-1.06039e+06
-1.03631e+06
-963422
-941468
-934386
-897220
-947240
-957534
-1.03626e+06
-1.10075e+06
-1.18267e+06
-1.24129e+06
-1.2341e+06
-1.11745e+06
-925793
-684647
-423751
-645497
-758488
-802886
-772932
-751496
-709599
-649644
-617455
-690825
-693397
-688542
-600479
-403450
-160970
-480900
-881187
-1.15335e+06
-1.36085e+06
-1.44311e+06
-1.40417e+06
-1.31074e+06
-1.18207e+06
-1.09646e+06
-982686
-965057
-893519
-923933
-988004
-943588
-959458
-970689
-1.0316e+06
-1.09335e+06
-1.1823e+06
-1.25804e+06
-1.31924e+06
-1.25683e+06
-1.07519e+06
-839196
-587470
-760743
-821646
-796600
-696546
-607512
-532515
-473538
-421831
-523616
-650132
-751123
-715961
-580603
-336018
-644288
-1.06395e+06
-1.33858e+06
-1.50468e+06
-1.50148e+06
-1.40072e+06
-1.28878e+06
-1.16454e+06
-1.08138e+06
-994246
-971744
-941828
-991572
-990781
-949482
-964514
-963652
-1.02025e+06
-1.08717e+06
-1.17534e+06
-1.27547e+06
-1.35371e+06
-1.35925e+06
-1.18998e+06
-995873
-854909
-1.04667e+06
-1.02281e+06
-927900
-760526
-621497
-500409
-416526
-411706
-524848
-692748
-863788
-976129
-978644
-733284
-860592
-1.24471e+06
-1.48858e+06
-1.59249e+06
-1.52385e+06
-1.3999e+06
-1.26879e+06
-1.13923e+06
-1.0528e+06
-966617
-963480
-938193
-982579
-1.06843e+06
-1.024e+06
-1.02127e+06
-1.01571e+06
-1.0392e+06
-1.08949e+06
-1.16209e+06
-1.23448e+06
-1.32445e+06
-1.36836e+06
-1.25689e+06
-1.0795e+06
-1.06825e+06
-1.23237e+06
-1.25942e+06
-1.07154e+06
-898069
-723801
-622251
-596316
-641334
-728301
-879684
-1.06121e+06
-1.27327e+06
-1.35763e+06
-1.15594e+06
-1.06336e+06
-1.31034e+06
-1.49704e+06
-1.56581e+06
-1.45767e+06
-1.34094e+06
-1.23084e+06
-1.13044e+06
-1.06395e+06
-1.02e+06
-1.0299e+06
-1.01996e+06
-1.08086e+06
-1.08415e+06
-1.07887e+06
-1.07294e+06
-1.07234e+06
-1.07925e+06
-1.11222e+06
-1.16175e+06
-1.223e+06
-1.24945e+06
-1.30034e+06
-1.18607e+06
-1.10488e+06
-1.11529e+06
-1.23181e+06
-1.23735e+06
-1.13852e+06
-965219
-810535
-760571
-745841
-762843
-853964
-1.01618e+06
-1.24e+06
-1.41387e+06
-1.46436e+06
-1.34402e+06
-1.19337e+06
-1.31776e+06
-1.45336e+06
-1.47125e+06
-1.37455e+06
-1.31093e+06
-1.22223e+06
-1.15129e+06
-1.1036e+06
-1.07635e+06
-1.08134e+06
-1.07204e+06
-1.10352e+06
-1.12177e+06
-1.15113e+06
-1.15458e+06
-1.15007e+06
-1.14179e+06
-1.15096e+06
-1.174e+06
-1.21178e+06
-1.22655e+06
-1.22133e+06
-1.15283e+06
-1.00145e+06
-1.00951e+06
-1.08369e+06
-1.08728e+06
-1.00584e+06
-890586
-767959
-736863
-734957
-725386
-831176
-985883
-1.1451e+06
-1.28246e+06
-1.34018e+06
-1.28961e+06
-1.18e+06
-1.17449e+06
-1.29485e+06
-1.321e+06
-1.30832e+06
-1.28352e+06
-1.23239e+06
-1.19798e+06
-1.17084e+06
-1.16746e+06
-1.16846e+06
-1.16097e+06
-1.17616e+06
-1.08824e+06
-1.19483e+06
-1.2144e+06
-1.23471e+06
-1.19427e+06
-1.18877e+06
-1.193e+06
-1.21185e+06
-1.21578e+06
-1.19383e+06
-1.12509e+06
-955335
-863734
-853247
-910607
-865775
-799170
-699559
-681559
-718385
-694574
-751443
-851258
-960668
-1.04529e+06
-1.08145e+06
-1.04724e+06
-1.01466e+06
-1.0792e+06
-1.19936e+06
-1.27245e+06
-1.30048e+06
-1.3042e+06
-1.27754e+06
-1.26144e+06
-1.24344e+06
-1.24591e+06
-1.23486e+06
-1.22103e+06
-1.18438e+06
-1.01301e+06
-1.17193e+06
-1.26367e+06
-1.29824e+06
-1.27549e+06
-1.20198e+06
-1.19262e+06
-1.19695e+06
-1.1887e+06
-1.16762e+06
-1.09512e+06
-987616
-812877
-764754
-729411
-726875
-666269
-603159
-583282
-649585
-646594
-652476
-712935
-769492
-816454
-802605
-822652
-846412
-1.04848e+06
-1.17567e+06
-1.27185e+06
-1.31304e+06
-1.32963e+06
-1.31563e+06
-1.3095e+06
-1.29374e+06
-1.30805e+06
-1.27122e+06
-1.25316e+06
-1.17269e+06
-869893
-1.03828e+06
-1.17264e+06
-1.27084e+06
-1.28122e+06
-1.21172e+06
-1.16421e+06
-1.14966e+06
-1.14751e+06
-1.1227e+06
-1.07521e+06
-954824
-820762
-650558
-583303
-519699
-490427
-432141
-464960
-568842
-611119
-570955
-573124
-612177
-650703
-696448
-764147
-910265
-1.08146e+06
-1.20506e+06
-1.2958e+06
-1.33476e+06
-1.34822e+06
-1.32701e+06
-1.3154e+06
-1.28745e+06
-1.2663e+06
-1.23617e+06
-1.20887e+06
-1.09982e+06
-726087
-861538
-1.00138e+06
-1.10526e+06
-1.17557e+06
-1.07982e+06
-1.08557e+06
-1.06937e+06
-1.05918e+06
-1.05415e+06
-1.01774e+06
-949457
-804776
-648346
-455015
-329960
-241895
-233256
-332131
-491924
-527987
-492793
-465556
-499139
-581041
-681494
-837678
-978065
-1.13846e+06
-1.23703e+06
-1.31285e+06
-1.33531e+06
-1.32539e+06
-1.28398e+06
-1.24723e+06
-1.14391e+06
-1.1437e+06
-1.12048e+06
-1.11466e+06
-995572
-545774
-604324
-751133
-913128
-1.01929e+06
-1.03399e+06
-945429
-877451
-935272
-916060
-937265
-899551
-834708
-697176
-552138
-349145
-227240
-214873
-346800
-478041
-504607
-470206
-469519
-535722
-645602
-779481
-914616
-1.04696e+06
-1.16959e+06
-1.2462e+06
-1.30099e+06
-1.29086e+06
-1.24851e+06
-1.15087e+06
-1.0471e+06
-1.00723e+06
-998561
-988158
-973148
-852371
-572257
-529762
-662546
-910541
-1.09646e+06
-1.10011e+06
-968691
-813575
-768377
-771268
-777050
-810934
-776164
-713533
-597513
-466015
-343218
-325261
-391174
-474163
-487549
-475732
-507788
-595654
-716174
-834765
-969021
-1.07945e+06
-1.18657e+06
-1.24451e+06
-1.26934e+06
-1.2315e+06
-1.10987e+06
-1.00083e+06
-981998
-909167
-804841
-753174
-757405
-667413
-758488
-727536
-824712
-1.05966e+06
-1.23157e+06
-1.19715e+06
-1.0388e+06
-806440
-729345
-600120
-619146
-669732
-714249
-686451
-647205
-559170
-492669
-459636
-490114
-525987
-537728
-534131
-578118
-657432
-753347
-857681
-969279
-1.0687e+06
-1.1634e+06
-1.20209e+06
-1.22004e+06
-1.12519e+06
-1.00941e+06
-917235
-999361
-932404
-695375
-455535
-446502
-441411
-818298
-793255
-834628
-989112
-1.20257e+06
-1.17465e+06
-1.0275e+06
-855862
-682800
-525014
-414074
-504849
-575174
-616725
-606740
-578279
-533752
-515463
-519269
-538466
-545749
-553796
-597502
-666133
-756201
-852333
-967029
-1.06835e+06
-1.15962e+06
-1.20064e+06
-1.18687e+06
-1.09086e+06
-918051
-893698
-1.00269e+06
-982388
-765867
-388857
-192363
-160809
-858293
-800682
-769044
-872177
-991857
-1.07545e+06
-943925
-812225
-683275
-467207
-297035
-310346
-450641
-532511
-588315
-587009
-585273
-569252
-575738
-579374
-580117
-572443
-593026
-631826
-691403
-768065
-877340
-991027
-1.10694e+06
-1.15972e+06
-1.15633e+06
-1.0289e+06
-869710
-810642
-929966
-918007
-765633
-440592
-219589
-60417.4
-858843
-751139
-658080
-688546
-823737
-878816
-833568
-740349
-617678
-432403
-204266
-182333
-314138
-443463
-514907
-549010
-554477
-550440
-545971
-542846
-535843
-524407
-529746
-550108
-601697
-688208
-837506
-1.00446e+06
-1.14359e+06
-1.2066e+06
-1.17505e+06
-1.02031e+06
-826493
-748102
-824684
-806515
-713595
-500271
-373964
-232444
-859348
-707277
-549045
-541165
-653470
-768034
-722411
-651723
-567632
-389287
-212684
-176812
-301831
-416770
-508757
-547902
-574194
-572196
-571568
-556612
-532815
-490531
-449696
-409932
-402324
-459746
-653538
-896347
-1.10896e+06
-1.22501e+06
-1.186e+06
-971879
-782477
-674393
-706700
-681281
-608342
-439325
-542559
-499895
-820659
-638987
-451692
-403146
-576807
-705784
-689450
-635141
-539946
-426108
-310815
-297649
-347031
-421204
-482749
-520190
-535069
-527309
-506645
-487705
-454259
-376841
-286662
-197436
-176279
-334806
-731147
-1.07122e+06
-1.21761e+06
-1.24899e+06
-1.17736e+06
-960000
-766429
-665172
-678231
-661236
-503526
-312651
-625018
-673009
-755079
-555244
-383724
-349328
-569474
-691599
-673976
-636938
-611710
-527969
-464201
-418928
-425475
-457957
-510953
-543474
-565949
-561046
-546798
-516235
-469638
-358781
-185609
43638.4
185020
-8937.73
-462098
-825094
-1.02899e+06
-1.15084e+06
-1.08216e+06
-851451
-694573
-601045
-618918
-594603
-393099
-142083
-478072
-654241
-783979
-545469
-382094
-390500
-626108
-729205
-684090
-629308
-577529
-532259
-457117
-410282
-406942
-440905
-484033
-511002
-520626
-500849
-465173
-433498
-365135
-149398
196106
570041
486733
-136127
-756124
-1.09694e+06
-1.11775e+06
-1.03257e+06
-932247
-744760
-615486
-545367
-582746
-585775
-489070
-276378
-453203
-612477
-834875
-622077
-515110
-531556
-733280
-851511
-828244
-726345
-623716
-504026
-415334
-373140
-395186
-446328
-499684
-532366
-548678
-541684
-521764
-496002
-453744
-335597
-150736
86467.7
200579
-24132.8
-493606
-805871
-1.0014e+06
-1.06476e+06
-924371
-731326
-588079
-516848
-574749
-614710
-594177
-414112
-471008
-615977
-749263
-612699
-635528
-711451
-898891
-1.03937e+06
-984652
-826846
-678721
-515391
-390015
-364544
-408764
-463951
-511703
-534107
-539159
-524072
-504767
-488418
-464554
-395494
-313567
-230185
-210999
-372434
-758927
-1.12027e+06
-1.18055e+06
-1.04142e+06
-990829
-810876
-669324
-617345
-712924
-738313
-711314
-515020
-491644
-556172
-591190
-558817
-673405
-875200
-1.10509e+06
-1.28056e+06
-1.15802e+06
-941905
-739912
-569904
-443676
-450725
-499772
-556051
-589810
-604773
-602220
-592340
-580193
-574771
-563823
-533752
-502359
-476628
-484907
-552379
-730878
-939143
-1.08424e+06
-1.15416e+06
-1.06504e+06
-849225
-684570
-697374
-852422
-877387
-780862
-565048
-416272
-362171
-390146
-413226
-574634
-934999
-1.29889e+06
-1.4106e+06
-1.27095e+06
-1.01179e+06
-766499
-597999
-518339
-542048
-593328
-620272
-632749
-622886
-610031
-591041
-584148
-586975
-591167
-587845
-599281
-627918
-688302
-786936
-928856
-1.07947e+06
-1.16525e+06
-1.16836e+06
-1.11611e+06
-931033
-753126
-813806
-998705
-1.04715e+06
-877342
-526923
-313836
-213656
-160556
-115708
-337990
-828573
-1.26914e+06
-1.40701e+06
-1.30209e+06
-1.0407e+06
-751832
-650695
-619643
-675604
-701257
-716649
-700269
-680394
-651399
-632527
-622753
-633886
-640741
-644401
-664829
-704327
-764950
-845908
-949531
-1.05369e+06
-1.13101e+06
-1.16312e+06
-1.11743e+06
-986297
-788983
-863521
-1.02975e+06
-1.04437e+06
-823725
-409691
-202892
-203873
-40432
-35540.4
-202082
-582059
-995877
-1.22157e+06
-1.2038e+06
-994811
-766967
-712501
-750433
-779451
-788697
-765098
-729551
-681318
-640481
-606862
-598645
-615239
-638421
-649027
-688178
-745915
-822912
-915545
-1.01767e+06
-1.11332e+06
-1.18417e+06
-1.20841e+06
-1.18685e+06
-1.0737e+06
-879209
-915226
-1.0049e+06
-940822
-712953
-458141
-441134
-445469
-364307
-523567
-699234
-903405
-1.04828e+06
-1.14172e+06
-1.12389e+06
-974702
-830882
-863595
-877876
-895226
-864544
-824402
-757402
-695941
-630144
-587277
-559987
-591274
-624980
-641615
-679417
-738458
-812112
-897999
-994376
-1.08446e+06
-1.16253e+06
-1.20657e+06
-1.21611e+06
-1.15414e+06
-1.0283e+06
-950462
-969774
-906131
-829928
-751290
-722957
-639897
-666485
-889383
-1.07628e+06
-1.25748e+06
-1.30633e+06
-1.31879e+06
-1.14694e+06
-1.09723e+06
-1.0238e+06
-1.00568e+06
-997808
-964611
-910993
-830373
-744634
-648780
-562565
-497937
-476436
-523594
-582299
-603265
-648986
-708892
-783652
-875762
-972888
-1.0718e+06
-1.15967e+06
-1.2259e+06
-1.26112e+06
-1.25598e+06
-1.18848e+06
-1.12916e+06
-1.08433e+06
-1.05691e+06
-1.04534e+06
-1.00978e+06
-960287
-829183
-908346
-1.15805e+06
-1.34486e+06
-1.49583e+06
-1.4868e+06
-1.47471e+06
-1.28686e+06
-1.18262e+06
-1.12093e+06
-1.0961e+06
-1.05884e+06
-1.00708e+06
-916934
-824624
-706239
-601445
-505427
-459143
-443347
-525772
-561308
-582646
-607276
-645333
-708509
-792869
-895451
-999989
-1.10035e+06
-1.18666e+06
-1.24775e+06
-1.27434e+06
-1.27176e+06
-1.24167e+06
-1.26881e+06
-1.1758e+06
-1.20045e+06
-1.15695e+06
-1.11024e+06
-969852
-1.10401e+06
-1.34146e+06
-1.47085e+06
-1.55436e+06
-1.52849e+06
-1.43338e+06
-1.26934e+06
-1.21341e+06
-1.17143e+06
-1.1355e+06
-1.08519e+06
-995688
-896030
-766295
-653168
-553349
-493185
-463195
-483094
-557253
-581869
-577499
-592209
-607287
-642704
-703687
-783514
-903056
-1.02162e+06
-1.13732e+06
-1.21788e+06
-1.27239e+06
-1.29367e+06
-1.29574e+06
-1.32011e+06
-1.34248e+06
-1.32251e+06
-1.28381e+06
-1.22776e+06
-1.09246e+06
-1.22578e+06
-1.38681e+06
-1.43238e+06
-1.45884e+06
-1.39475e+06
-1.3225e+06
-1.24401e+06
-1.2096e+06
-1.17397e+06
-1.13658e+06
-1.06503e+06
-966663
-829948
-731469
-638466
-594541
-564413
-564675
-590102
-640706
-644912
-620976
-604547
-605403
-632306
-666008
-713145
-787727
-901318
-1.04712e+06
-1.14916e+06
-1.21625e+06
-1.25185e+06
-1.26119e+06
-1.27228e+06
-1.28433e+06
-1.31486e+06
-1.28776e+06
-1.26118e+06
-1.16462e+06
-1.25113e+06
-1.32163e+06
-1.31608e+06
-1.31503e+06
-1.26055e+06
-1.22729e+06
-1.18182e+06
-1.17162e+06
-1.14908e+06
-1.10842e+06
-1.03078e+06
-884388
-795902
-720411
-685126
-655113
-639506
-640117
-648009
-700109
-666662
-623561
-615595
-624175
-664720
-711304
-736528
-782305
-814804
-957295
-1.0802e+06
-1.16494e+06
-1.20281e+06
-1.22009e+06
-1.22521e+06
-1.22498e+06
-1.2382e+06
-1.23035e+06
-1.22249e+06
-1.18113e+06
-1.22626e+06
-1.20995e+06
-1.18962e+06
-1.17033e+06
-1.1332e+06
-1.11994e+06
-1.11146e+06
-1.1241e+06
-1.1109e+06
-1.06811e+06
-966045
-835751
-813533
-816731
-777827
-729757
-689283
-668113
-675684
-685534
-667961
-631895
-628052
-665184
-742787
-836512
-902960
-914904
-884832
-903500
-1.02495e+06
-1.10074e+06
-1.13624e+06
-1.14833e+06
-1.14366e+06
-1.13921e+06
-1.14315e+06
-1.14711e+06
-1.1444e+06
-1.15652e+06
-1.13042e+06
-1.0779e+06
-1.06321e+06
-1.03732e+06
-1.02667e+06
-1.03869e+06
-1.0614e+06
-1.08875e+06
-1.07793e+06
-1.03765e+06
-903807
-862801
-903566
-936107
-895961
-817535
-723518
-669938
-662388
-659411
-663772
-645720
-650291
-707525
-842385
-977635
-1.05601e+06
-1.05522e+06
-965972
-964012
-1.05887e+06
-1.12388e+06
-1.11494e+06
-1.1154e+06
-1.08834e+06
-1.07255e+06
-1.06141e+06
-1.06807e+06
-1.06477e+06
-1.09428e+06
-1.07246e+06
-987064
-977061
-946122
-956867
-987138
-1.03342e+06
-1.07207e+06
-1.09337e+06
-1.04358e+06
-924107
-836027
-876159
-932855
-892286
-782469
-690620
-611188
-551619
-519462
-545557
-554768
-613292
-720096
-856397
-1.0064e+06
-1.11927e+06
-1.0774e+06
-938956
-980721
-1.06074e+06
-1.14403e+06
-1.1232e+06
-1.09564e+06
-1.05355e+06
-1.02057e+06
-996408
-1.00931e+06
-1.00231e+06
-1.05582e+06
-953480
-882192
-893659
-868971
-921111
-967279
-1.03428e+06
-1.08846e+06
-1.09587e+06
-1.01199e+06
-907610
-785674
-689437
-749631
-752870
-706403
-638595
-577209
-508826
-419384
-373304
-444206
-562591
-684096
-807341
-928814
-991531
-953900
-819476
-964102
-1.08811e+06
-1.16859e+06
-1.16167e+06
-1.11393e+06
-1.05226e+06
-1.01018e+06
-953952
-956592
-940561
-976555
-933433
-865589
-874822
-868393
-930093
-970765
-1.03972e+06
-1.07796e+06
-1.08308e+06
-1.00965e+06
-903147
-733621
-510639
-481719
-547799
-598464
-588435
-553514
-485290
-420089
-403883
-505993
-606850
-703635
-783591
-855051
-837781
-742905
-657187
-882654
-1.02085e+06
-1.13907e+06
-1.14589e+06
-1.11686e+06
-1.05449e+06
-1.01239e+06
-961308
-951000
-933059
-976214
-857159
-800774
-849543
-847678
-928460
-968347
-1.03973e+06
-1.0749e+06
-1.06439e+06
-987131
-866904
-697329
-441899
-291921
-408680
-516740
-583222
-635463
-599973
-494812
-530410
-628589
-706445
-777274
-811834
-830625
-783233
-646393
-556332
-786647
-931834
-1.06187e+06
-1.12286e+06
-1.11737e+06
-1.06409e+06
-1.02459e+06
-950045
-945430
-894091
-918564
-846432
-839859
-898229
-893744
-979413
-986960
-1.03797e+06
-1.01617e+06
-972218
-875053
-755060
-601712
-413857
-247821
-319494
-482774
-635689
-793295
-791155
-693192
-642451
-685900
-759561
-836433
-847356
-837058
-791344
-669569
-548262
-689492
-807589
-929916
-1.01303e+06
-1.0708e+06
-1.05421e+06
-1.0565e+06
-990921
-986022
-942772
-929070
-947056
-950454
-1.00317e+06
-1.00095e+06
-1.06744e+06
-1.07528e+06
-1.10164e+06
-1.06868e+06
-999057
-875154
-757645
-639305
-560845
-721558
-735433
-772544
-778036
-795557
-796335
-768598
-754851
-793311
-749561
-687902
-615519
-548192
-398001
-484881
-671230
-835137
-1.01135e+06
-1.15318e+06
-1.21528e+06
-1.23782e+06
-1.18149e+06
-1.16028e+06
-1.06533e+06
-1.05693e+06
-991967
-971879
-944380
-907854
-953991
-955831
-1.01899e+06
-1.06432e+06
-1.12531e+06
-1.16687e+06
-1.15323e+06
-1.04742e+06
-896863
-744549
-551032
-702839
-728753
-752025
-730016
-720610
-699752
-666165
-640955
-691215
-664228
-652752
-606671
-539384
-399108
-611127
-859512
-1.05604e+06
-1.24611e+06
-1.33334e+06
-1.31315e+06
-1.24546e+06
-1.14485e+06
-1.08459e+06
-992351
-987388
-922474
-952920
-993957
-950229
-962504
-963866
-1.00834e+06
-1.04892e+06
-1.11194e+06
-1.16353e+06
-1.21014e+06
-1.16056e+06
-1.02433e+06
-886490
-697508
-793683
-782767
-765618
-707570
-657704
-614117
-596071