/*--------------------------------*- C++ -*----------------------------------*\
  =========                 |
  \\      /  F ield         | OpenFOAM: The Open Source CFD Toolbox
   \\    /   O peration     | Website:  https://openfoam.org
    \\  /    A nd           | Version:  11
     \\/     M anipulation  |
\*---------------------------------------------------------------------------*/
FoamFile
{
    format      ascii;
    class       surfaceScalarField;
    location    "400";
    object      phi;
}
// * * * * * * * * * * * * * * * * * * * * * * * * * * * * * * * * * * * * * //

dimensions      [0 3 -1 0 0 0 0];

internalField   nonuniform List<scalar> 
376000
(
-0.001446
-0.00148828
1.91905
0.133727
-0.142884
4.7252
0.219709
-0.0954555
7.02033
0.406967
-0.200891
9.72214
0.622339
-0.228791
12.4912
0.846899
-0.241338
15.1205
1.04579
-0.215563
17.517
1.15538
-0.129178
19.415
1.12919
0.00522144
20.69
0.99551
0.108909
21.5578
0.802309
0.168081
21.9424
0.408383
0.396694
23.468
-0.099135
0.561259
37.8953
-0.360526
0.248115
48.5674
-0.362781
-0.0112154
55.0541
-0.224272
-0.157985
61.0155
0.0120816
-0.259554
65.3856
0.246558
-0.259525
66.366
0.31771
-0.0981984
59.8957
0.0348226
0.258397
50.159
-0.350093
0.355474
46.3183
-0.427517
0.0423504
55.5063
-0.247853
-0.20178
65.8382
-0.0513754
-0.20903
67.0859
0.0158561
-0.0706754
61.1027
-0.118365
0.15159
53.5938
-0.530854
0.494673
42.2845
-0.979665
0.484011
26.7164
-1.26682
0.252606
23.5295
-1.45379
0.151574
23.6063
-1.55156
0.0678102
23.1161
-1.50908
-0.0669679
22.0918
-1.32745
-0.203263
20.527
-1.07242
-0.273377
18.3126
-0.789661
-0.3024
15.6824
-0.536369
-0.269385
12.8294
-0.299877
-0.253455
9.94051
-0.190538
-0.121764
7.0507
-0.0316574
-0.1687
4.70078
-0.037064
2.14433
-0.137293
0.127888
4.71507
-0.144086
-0.150106
7.39404
-0.0522536
-0.203621
10.2687
0.068305
-0.343449
13.6103
0.299607
-0.48343
17.1452
0.566189
-0.533904
20.3134
0.875624
-0.551605
23.2428
1.1609
-0.442189
25.501
1.28641
-0.150152
26.5926
1.16551
0.198235
26.903
0.843348
0.455802
26.5301
0.381051
0.868394
27.5504
-0.0438222
1.06522
45.341
-0.335553
0.544907
62.503
-0.481392
0.1231
71.8394
-0.504244
-0.140906
78.0213
-0.449901
-0.313465
82.6439
-0.380958
-0.323058
85.2789
-0.257828
-0.207259
82.6657
-0.055721
0.087255
66.5997
0.239691
0.0990058
62.0819
0.441315
-0.13917
79.186
0.452847
-0.202795
84.3421
0.370821
-0.124445
83.6566
0.191707
0.106108
79.1388
-0.0916249
0.459874
71.1797
-0.482801
0.996334
52.8752
-0.999661
1.04804
31.7059
-1.45364
0.662136
28.6919
-1.68693
0.343988
29.7091
-1.69276
0.0411868
29.7488
-1.46036
-0.328493
29.0083
-1.11048
-0.581196
27.2708
-0.744328
-0.668039
24.6286
-0.419683
-0.656829
21.4291
-0.14099
-0.575202
17.9148
0.0181221
-0.439806
14.238
0.131297
-0.255454
10.5014
0.150459
-0.206088
7.51394
0.102307
4.72646
-0.0876112
0.206086
6.98277
-0.191197
-0.0628058
10.2517
-0.198151
-0.217468
13.7639
-0.158625
-0.409143
17.5233
-0.0640656
-0.60703
21.4189
0.102606
-0.733361
25.1613
0.338957
-0.822023
28.5703
0.652291
-0.792014
31.1272
0.917372
-0.455862
31.5537
0.951037
0.126267
30.5892
0.73865
0.633043
29.4648
0.406376
1.22522
31.1178
0.0253721
1.52068
49.7724
-0.34888
0.924128
69.1056
-0.531227
0.301128
77.405
-0.549106
-0.120341
81.7754
-0.51224
-0.330908
86.6451
-0.419562
-0.3864
93.4411
-0.305912
-0.290991
100.456
0.021382
-0.202325
103.279
0.448458
-0.275
99.5804
0.605072
-0.25787
99.6089
0.581911
-0.162174
96.8417
0.453538
0.00172601
92.9161
0.247446
0.311241
87.9668
-0.0512424
0.775821
79.9905
-0.400142
1.45615
61.9861
-0.830635
1.55847
36.8735
-1.18762
0.979067
31.7336
-1.31525
0.42823
33.2794
-1.1869
-0.125064
34.1629
-0.851691
-0.699947
34.3253
-0.51238
-0.956016
32.9786
-0.230873
-0.985726
30.1789
-0.0238962
-0.899991
26.5772
0.103174
-0.735791
22.4417
0.165333
-0.533244
18.2722
0.176373
-0.292377
14.1992
0.0827309
-0.133822
10.4809
0.171604
6.9014
-0.193315
0.385729
9.66784
-0.333885
0.0557664
13.5614
-0.394869
-0.182824
17.5074
-0.407227
-0.429586
21.6692
-0.354475
-0.695272
25.9499
-0.252342
-0.873493
30.0572
-0.105864
-1.00793
33.8124
0.107123
-1.04303
36.7715
0.444174
-0.83736
37.2238
0.633943
-0.099806
33.5002
0.555572
0.68454
31.7766
0.432912
1.38578
34.6273
0.253935
1.73852
51.2995
-0.120974
1.26903
64.9079
-0.487266
0.64425
69.6607
-0.639854
0.034951
71.3191
-0.58499
-0.364655
73.3766
-0.466228
-0.46599
78.6475
-0.339058
-0.36648
85.2397
-0.0393092
-0.432222
86.3554
0.345085
-0.578544
77.4621
0.543283
-0.391548
79.3032
0.631679
-0.214013
79.5974
0.610011
0.0314668
79.112
0.396149
0.505181
78.6661
0.0192081
1.12206
77.0427
-0.264383
1.79338
66.3997
-0.512275
1.90794
42.6646
-0.757454
1.20645
33.9691
-0.804176
0.441671
35.2237
-0.569957
-0.394606
36.9858
-0.238061
-1.06709
39.3996
0.000787352
-1.23233
38.3997
0.193694
-1.21992
35.5052
0.318405
-1.06713
31.5455
0.397308
-0.855199
27.1603
0.405706
-0.581081
22.6044
0.341812
-0.261192
18.1379
0.209796
-0.0298166
13.8948
0.361921
9.7097
-0.216701
0.589108
12.4
-0.464048
0.28
17.0538
-0.583077
-0.0927843
21.3349
-0.665899
-0.382057
25.8892
-0.684389
-0.716424
30.5694
-0.648802
-0.951224
35.128
-0.559609
-1.14009
39.2657
-0.452716
-1.19259
42.3862
-0.177311
-1.14775
43.902
0.234294
-0.576579
38.2233
0.360596
0.546559
33.9183
0.441039
1.33871
37.8457
0.557295
1.62307
51.0253
0.448995
1.32443
59.6173
0.145118
0.889836
60.8846
-0.226984
0.390703
56.8634
-0.487586
-0.0893799
63.0147
-0.532355
-0.384387
64.5978
-0.405318
-0.446304
66.4324
-0.126921
-0.665411
64.0473
0.171659
-0.837484
59.8254
0.3324
-0.506457
60.0523
0.372497
-0.220288
61.8127
0.256102
0.159791
64.4484
-0.00310147
0.715889
66.5394
-0.269444
1.31709
70.3315
-0.32979
1.84271
65.5678
-0.29138
1.95351
47.8502
-0.340823
1.26346
36.23
-0.173187
0.258356
35.6923
0.192589
-0.806545
40.5518
0.417989
-1.32542
44.7332
0.556684
-1.4132
43.7851
0.656845
-1.36602
40.8729
0.69883
-1.1562
36.6794
0.688264
-0.889964
31.8919
0.594008
-0.529116
26.9144
0.479366
-0.181879
22.0358
0.240982
0.177904
17.4749
0.583487
12.5109
-0.227407
0.799731
14.9718
-0.508082
0.534952
20.1255
-0.700634
0.0671282
24.9547
-0.836625
-0.283768
29.8948
-0.911879
-0.683106
35.0203
-0.932335
-0.974737
40.1618
-0.916285
-1.20068
44.9511
-0.848684
-1.30256
48.7486
-0.767393
-1.26589
50.8269
-0.318153
-1.04026
50.0771
0.267712
-0.0635033
35.5358
0.522424
1.10081
40.0425
0.774802
1.34017
49.0257
0.913001
1.12484
54.4702
0.910328
0.832516
55.5315
0.744189
0.527712
54.1103
0.313713
0.33626
52.5092
-0.165428
0.107286
55.7321
-0.336984
-0.260008
60.2054
-0.30015
-0.689221
60.9494
-0.352743
-0.75667
58.7471
-0.49274
-0.343607
54.6641
-0.642982
-0.0730773
54.3292
-0.757853
0.236098
56.9339
-0.750521
0.645051
61.4315
-0.651767
1.13193
64.2515
-0.41145
1.5446
62.1253
-0.137723
1.70764
50.8827
0.058099
1.08969
39.126
0.492894
-0.220728
36.8717
0.832935
-1.16041
48.4871
0.923471
-1.44969
50.9371
0.989607
-1.52193
49.9198
0.997211
-1.42197
46.5696
0.961701
-1.17046
41.8131
0.873719
-0.850575
36.4312
0.733505
-0.434639
30.9618
0.548029
-0.0361317
25.6824
0.272192
0.419512
20.6095
0.83173
15.1652
-0.195426
0.978663
17.2866
-0.52124
0.834564
22.9696
-0.787579
0.299948
28.283
-0.962288
-0.147814
33.5139
-1.09371
-0.593806
39.0116
-1.15624
-0.956047
44.8126
-1.18159
-1.22002
50.4968
-1.15809
-1.36937
55.3769
-1.09628
-1.36744
58.7478
-0.948308
-1.22027
59.9519
-0.226338
-0.802139
58.4812
0.610884
0.278697
43.0427
0.985111
0.945268
47.8563
1.18933
0.885301
51.1526
1.20214
0.787847
52.494
1.05548
0.658347
52.779
0.75893
0.634536
53.0656
0.192067
0.693952
55.2768
-0.285841
0.233531
61.8482
-0.467062
-0.493889
64.8229
-0.726974
-0.468431
60.8609
-1.08289
0.0275289
54.3207
-1.30699
0.144109
53.7381
-1.32399
0.220707
54.7806
-1.21226
0.473273
56.6975
-0.973449
0.811394
58.1147
-0.604632
1.10109
57.0047
-0.145615
1.22598
50.9062
0.564658
0.392616
41.9457
1.13348
-0.785507
54.4479
1.28676
-1.33561
58.7028
1.33456
-1.53511
59.2012
1.32643
-1.55976
56.8663
1.26731
-1.41388
52.4238
1.16838
-1.12301
46.7115
1.02531
-0.757887
40.5422
0.827292
-0.283564
34.5918
0.587108
0.16228
29.021
0.267755
0.704057
23.5126
1.0768
17.6226
-0.102769
1.06194
19.0618
-0.392023
1.09622
25.0596
-0.739965
0.611606
30.6618
-0.990583
0.0661467
36.3455
-1.13169
-0.493819
41.9384
-1.23866
-0.890237
48.4451
-1.3121
-1.18891
55.2244
-1.33699
-1.38645
61.4628
-1.30374
-1.4397
66.4022
-1.22962
-1.32565
69.3186
-0.974441
-1.0719
69.617
-0.0991729
-0.588261
65.992
0.731856
0.158104
54.4601
1.0386
0.587393
54.6624
1.10941
0.724455
55.0235
0.93305
0.842889
55.279
0.640642
0.944668
55.8114
0.334512
1.03034
58.3008
0.0224594
0.580575
65.8191
-0.273571
-0.181522
70.6236
-0.468308
-0.246593
68.3814
-0.720695
0.311488
60.6605
-1.03761
0.476179
57.1607
-1.24383
0.431149
56.4097
-1.26624
0.4836
56.1136
-1.02294
0.540387
55.9106
-0.574481
0.620522
54.9817
0.307079
0.341772
52.4763
1.1963
-0.480681
60.6166
1.51455
-1.10676
67.57
1.57758
-1.42341
69.3925
1.55936
-1.55687
67.8412
1.48299
-1.5314
63.7406
1.36048
-1.3434
57.7724
1.20127
-1.0154
50.7462
1.00352
-0.610818
43.579
0.787321
-0.115346
37.1081
0.533609
0.371284
31.0938
0.232684
0.968784
25.6216
1.2848
19.69
0.0342915
1.0069
20.2613
-0.0757268
1.17752
25.8782
-0.347993
0.844322
30.5519
-0.733449
0.406964
36.0569
-1.07764
-0.180954
43.1974
-1.20366
-0.797914
50.3861
-1.31134
-1.11823
58.4361
-1.3914
-1.34439
66.2787
-1.41325
-1.45579
73.0261
-1.38543
-1.3869
77.9856
-1.29876
-1.18227
80.4425
-1.03931
-0.853672
79.9896
-0.401323
-0.462863
76.0712
0.171813
0.0653818
65.9589
0.424608
0.505491
61.94
0.479934
0.818001
60.351
0.370235
1.08793
60.1643
0.331062
1.1165
63.0156
0.326343
0.628596
70.7638
0.0458141
0.124528
75.6463
-0.186664
0.00432669
76.2721
-0.250439
0.414544
71.2571
-0.349057
0.611397
65.5686
-0.421349
0.532678
64.6457
-0.341033
0.430933
64.35
-0.0616557
0.291172
64.7926
0.546851
0.0582484
66.4626
1.30823
-0.384563
74.244
1.67643
-0.843778
79.7442
1.75678
-1.20619
81.1987
1.72266
-1.42422
79.7387
1.62584
-1.50597
75.74
1.48732
-1.4438
69.6294
1.3048
-1.21332
61.8637
1.09382
-0.854908
53.2001
0.85966
-0.426186
44.8571
0.605065
0.089481
37.7284
0.388519
0.539556
31.4358
0.169436
1.15296
26.795
1.43026
21.3067
0.116005
0.866288
21.0301
0.254176
1.00818
26.0815
0.232146
0.829136
29.4485
0.0535764
0.554353
32.1614
-0.427651
0.238059
35.8812
-0.930515
-0.304745
49.5237
-1.14028
-0.935776
59.3711
-1.26382
-1.25033
69.0953
-1.33356
-1.41826
77.884
-1.35515
-1.39814
85.2545
-1.33982
-1.22363
90.3159
-1.26205
-0.944797
92.6582
-1.09951
-0.614011
91.9841
-0.727092
-0.268178
87.4144
-0.324997
0.176547
77.7001
-0.041663
0.606665
71.785
0.143328
0.977209
68.6819
0.360976
0.978367
72.4762
0.474986
0.583101
81.4504
0.330726
0.30333
86.2697
0.128837
0.223888
87.588
0.137941
0.445504
85.2059
0.302506
0.506903
81.0829
0.47532
0.419397
80.9886
0.717409
0.245835
82.3051
1.06786
-0.00400956
85.274
1.46041
-0.303203
91.3179
1.68974
-0.608135
94.2395
1.76565
-0.934194
94.5887
1.73487
-1.20606
92.6479
1.63005
-1.36118
88.4489
1.48171
-1.40673
82.1399
1.29338
-1.30651
73.9473
1.04837
-1.01783
64.0783
0.74932
-0.603457
53.2364
0.405993
-0.128372
43.3041
0.263195
0.183415
33.7452
0.227241
0.538447
29.9579
0.100964
1.24788
27.2728
1.50652
22.4876
0.19324
0.650491
21.3738
0.518986
0.651592
25.5838
0.726347
0.593109
28.3773
0.797781
0.464074
30.7694
0.687114
0.344133
33.0879
0.0712005
0.309926
35.0048
-0.711137
-0.170157
57.258
-1.00947
-0.963232
69.358
-1.1319
-1.31742
80.2824
-1.18165
-1.37358
90.24
-1.20001
-1.23239
97.934
-1.18813
-0.976114
103.126
-1.12613
-0.681152
105.736
-1.01538
-0.355868
105.284
-0.761028
-0.0198024
100.378
-0.417835
0.355612
93.5819
-0.0398939
0.708463
87.8387
0.305711
0.738236
91.4596
0.438586
0.519475
98.6992
0.400884
0.371347
98.8236
0.366066
0.282869
99.1574
0.459105
0.395004
100.065
0.683246
0.342212
101.157
0.929585
0.229804
102.582
1.1851
0.0378916
104.825
1.4097
-0.204606
108.687
1.55085
-0.439296
109.853
1.6385
-0.709303
108.937
1.63802
-0.95966
106.204
1.55738
-1.16292
101.629
1.41229
-1.26055
95.1821
1.22039
-1.26368
86.8174
0.973773
-1.10796
76.5448
0.591386
-0.677832
63.9942
0.0708477
-0.135213
49.9968
-0.124991
0.0557113
35.7063
-0.0133051
0.066547
32.3202
0.0380494
0.467647
29.0272
0.0324157
1.22548
27.4589
1.51421
23.2626
0.480003
0.195216
25.1194
0.973592
0.197506
29.4956
1.35574
0.260773
33.295
1.5082
0.361553
36.801
1.43311
0.450463
39.5341
1.17148
0.579787
40.9605
0.337723
0.675403
43.6613
-0.525087
-0.0846101
65.6166
-0.797576
-1.04809
79.8301
-0.895253
-1.2874
92.554
-0.932526
-1.21325
103.091
-0.945109
-0.983934
110.868
-0.927388
-0.711222
116.293
-0.860504
-0.423751
119.458
-0.731989
-0.127291
120.236
-0.492548
0.171226
117.098
-0.132657
0.43608
113.517
0.185935
0.502628
115.01
0.339764
0.418292
117.34
0.383493
0.355453
113.399
0.430954
0.264928
113.982
0.582428
0.285884
116.932
0.784758
0.18555
120.578
0.990019
0.0610623
122.648
1.17157
-0.124337
124.607
1.30454
-0.333493
124.867
1.40758
-0.552329
123.176
1.44758
-0.770651
119.885
1.41082
-0.953524
115.016
1.30118
-1.09215
108.505
1.11295
-1.11588
100.255
0.877023
-1.07419
90.0589
0.506289
-0.778294
77.5834
-0.154456
-0.0532783
60.3629
-0.56919
0.290131
44.2915
-0.542941
0.049925
39.9548
-0.422305
-0.0352633
34.9707
-0.243692
0.289561
29.1849
-0.061394
1.01625
27.147
1.42865
23.6603
0.505077
-0.293357
41.7992
0.951603
-0.210309
50.4456
1.38107
-0.127065
54.974
1.61858
0.129837
54.4297
1.5192
0.526322
52.409
1.2602
0.796212
49.2899
0.894866
1.01935
47.9607
0.151949
0.704428
55.1962
-0.433797
-0.442337
76.0302
-0.580904
-1.12646
91.9122
-0.650831
-1.14701
105.694
-0.684165
-0.962915
116.23
-0.692983
-0.715223
123.825
-0.669165
-0.453501
129.277
-0.58927
-0.203099
132.753
-0.434601
0.0386669
133.707
-0.189552
0.231623
133.429
0.0450132
0.311537
133.968
0.210152
0.285467
133.187
0.321962
0.266169
127.559
0.431691
0.179061
128.535
0.593406
0.155163
132.62
0.771931
0.0347883
136.391
0.943442
-0.0947522
138.111
1.08797
-0.263744
138.293
1.20401
-0.455366
136.46
1.27201
-0.634099
133.103
1.28303
-0.803977
128.231
1.21717
-0.916189
121.883
1.06687
-0.976955
113.921
0.830471
-0.918373
104.278
0.519967
-0.802912
92.542
-0.0261748
-0.261216
77.3058
-0.575983
0.50061
54.9284
-0.815489
0.528844
51.5254
-0.907594
0.174154
51.2628
-0.846148
-0.0149916
45.768
-0.569657
0.0777795
34.4886
-0.172424
0.611137
26.8857
1.23381
23.6294
0.156669
-0.468728
49.3218
0.40547
-0.46516
64.0159
0.734467
-0.464588
70.1795
1.09351
-0.266893
65.5969
1.19972
0.362194
59.4482
1.03555
0.898235
53.9518
0.841597
1.18347
50.9274
0.57008
0.986058
54.998
0.0785544
0.100676
66.4867
-0.231912
-0.772559
87.3893
-0.31697
-1.03618
105.292
-0.382149
-0.897049
119.343
-0.412752
-0.688898
129.265
-0.413195
-0.457349
136.516
-0.36915
-0.245615
141.885
-0.272898
-0.0492944
145.254
-0.119637
0.097395
146.896
0.0363187
0.17769
147.591
0.170109
0.172336
146.329
0.285259
0.16783
140.884
0.391025
0.0907263
141.819
0.524014
0.04288
146.038
0.657601
-0.0843895
149.293
0.788212
-0.218981
149.89
0.911875
-0.388342
148.379
1.01105
-0.56227
145.212
1.08211
-0.718853
140.61
1.09185
-0.833626
134.541
1.02785
-0.877186
127.064
0.857031
-0.837639
118.078
0.606765
-0.701633
107.542
0.230385
-0.461463
94.6835
-0.199909
0.1661
75.2713
-0.487461
0.787933
58.3808
-0.732585
0.749756
57.6965
-0.890682
0.319484
62.6996
-0.913232
0.0619291
63.9318
-0.748388
0.0301086
53.8765
-0.3176
0.276241
34.9021
0.917066
23.901
-0.0504141
-0.437707
55.7
0.0495775
-0.579114
72.3769
0.184054
-0.60535
77.8106
0.507233
-0.606146
69.6459
0.787985
0.0283463
59.7714
0.774814
0.857822
54.7147
0.769205
1.16438
52.2525
0.720172
1.04468
55.2322
0.503529
0.356199
62.4701
0.188155
-0.382737
78.2696
0.000820948
-0.788649
100.606
-0.107167
-0.766895
120.051
-0.186392
-0.604662
132.684
-0.230169
-0.412728
141.761
-0.23396
-0.240884
148.473
-0.195254
-0.0836671
153.26
-0.111559
0.0223974
156.044
-0.0119498
0.0893583
157.18
0.0890182
0.0823836
156.023
0.19585
0.0707968
151.029
0.302852
-0.00670447
151.942
0.427407
-0.0709209
156.167
0.553853
-0.203528
158.476
0.686544
-0.34927
157.881
0.817228
-0.520336
155.47
0.937523
-0.687741
151.412
1.02382
-0.812773
145.961
1.04946
-0.870876
139.021
0.980926
-0.82469
130.858
0.799354
-0.678418
121.442
0.492108
-0.420235
110.746
0.0840835
-0.0764508
97.61
-0.194988
0.458416
78.3253
-0.363208
0.96933
62.009
-0.5336
0.894057
61.0327
-0.612679
0.361215
68.2611
-0.624585
0.0729217
76.2955
-0.545292
0.0124146
75.6709
-0.337195
0.180111
57.7653
0.684562
32.1053
-0.183636
-0.277004
61.1466
-0.188287
-0.581735
78.3275
-0.176798
-0.612586
82.1281
-0.0496772
-0.729827
71.7468
0.322485
-0.352454
58.345
0.520248
0.636809
54.0101
0.674399
0.999829
52.8807
0.866978
0.8631
55.5796
0.835099
0.422646
60.8387
0.627318
-0.099788
72.4784
0.388441
-0.45512
94.1214
0.211517
-0.532878
117.042
0.0857742
-0.453498
133.561
0.00323391
-0.319531
144.928
-0.0334799
-0.197695
153.256
-0.0297694
-0.0816189
159.012
0.00741593
-0.00744368
162.806
0.061575
0.0434377
164.404
0.120384
0.031863
163.616
0.186638
0.0112037
159.261
0.250932
-0.0641679
159.963
0.327266
-0.138659
163.89
0.409583
-0.279225
165.2
0.505837
-0.441537
163.764
0.624388
-0.636561
160.421
0.763274
-0.825553
155.345
0.904566
-0.953394
148.813
0.991326
-0.960526
140.873
0.975713
-0.817613
132.192
0.811773
-0.531903
122.886
0.503629
-0.132557
112.883
0.118092
0.28947
100.507
-0.123017
0.716037
83.2478
-0.203226
1.0739
65.9818
-0.268882
0.949305
62.8953
-0.291841
0.357378
70.5451
-0.282543
0.0530923
83.1056
-0.175722
-0.0766882
89.8062
-0.103299
0.152986
74.6233
0.68918
48.0724
-0.258497
-0.0429469
64.9319
-0.322915
-0.518388
82.8818
-0.340905
-0.574911
87.4316
-0.381756
-0.66454
74.4803
-0.108054
-0.602296
64.136
0.377676
0.148744
52.6939
0.68888
0.694123
53.4694
0.96767
0.60252
56.212
1.09219
0.333274
60.6622
0.966679
0.100184
69.4332
0.701858
-0.0821815
88.8517
0.438818
-0.185698
113.866
0.241085
-0.214972
133.354
0.104211
-0.164149
146.595
0.0200495
-0.104343
155.925
-0.0228705
-0.0328891
162.591
-0.0328748
0.007545
166.892
-0.0201158
0.0359806
168.794
0.00385143
0.0128494
168.034
0.0428983
-0.023149
163.692
0.0890865
-0.105757
164.437
0.157723
-0.201628
168.383
0.249821
-0.365411
168.919
0.380614
-0.565696
166.645
0.558627
-0.804735
162.439
0.777305
-1.02896
156.307
0.978103
-1.13327
148.586
1.07786
-1.04331
139.674
1.04173
-0.773982
130.933
0.864139
-0.359417
122.517
0.534676
0.186663
114.326
0.131934
0.684082
103.884
-0.105908
0.978661
88.4757
-0.146535
1.15299
70.885
-0.104384
0.91918
65.5769
-0.099021
0.350288
74.0416
-0.0935193
0.0478153
89.3473
0.0135765
-0.179106
98.7355
0.0902761
0.0901721
81.5376
0.837515
59.6906
-0.231308
0.162235
64.7008
-0.312912
-0.432623
85.4696
-0.368761
-0.489498
93.7852
-0.439346
-0.548846
78.7843
-0.400704
-0.599978
64.1964
0.0796307
-0.32084
57.3862
0.715758
0.0791712
55.9733
1.04459
0.303631
58.9085
1.12352
0.303264
63.7831
0.994796
0.308314
73.4723
0.774853
0.243302
92.0836
0.556419
0.116445
114.809
0.380871
0.00843268
133.52
0.254119
-0.0123865
147.039
0.167595
-0.0028005
156.963
0.115878
0.0284492
164.156
0.0894177
0.0417414
168.948
0.0812849
0.050565
171.245
0.079618
0.0205733
170.704
0.0812677
-0.0193959
166.578
0.0789854
-0.0961571
166.944
0.0829913
-0.196585
170.689
0.0956073
-0.366544
170.723
0.144073
-0.597999
167.561
0.276139
-0.911957
161.975
0.505528
-1.22099
153.814
0.730669
-1.3167
143.823
0.835969
-1.12044
133.701
0.833581
-0.754694
125.231
0.690129
-0.21161
118.079
0.334212
0.541609
111.578
-0.0663596
1.08412
103.385
-0.245001
1.18528
89.8924
-0.17071
1.11393
74.9739
-0.012068
0.785162
69.07
0.0215819
0.329327
78.2298
0.0369226
0.0416264
95.3276
0.0904209
-0.211437
103.171
0.0808108
0.0942339
78.5696
0.922739
61.4382
-0.0594731
0.198085
55.9129
-0.206372
-0.272383
83.7288
-0.305511
-0.354893
99.4581
-0.415785
-0.374265
82.3691
-0.552963
-0.415523
64.0389
-0.458438
-0.402386
60.3209
0.0605456
-0.42552
63.0503
0.474615
-0.0770999
68.142
0.550428
0.266211
72.5827
0.568548
0.350593
83.1089
0.532764
0.341874
99.2399
0.442859
0.256252
116.831
0.315554
0.169946
132.553
0.197135
0.127264
145.606
0.0973295
0.109396
155.693
0.0219795
0.111125
163.197
-0.0377851
0.106217
168.112
-0.0843377
0.101505
170.326
-0.129567
0.0713507
169.226
-0.176784
0.0311857
164.709
-0.225684
-0.0451246
165.639
-0.24977
-0.165305
169.41
-0.228357
-0.374633
168.413
-0.117333
-0.687133
164.137
0.0981043
-1.08471
157.146
0.288567
-1.33877
146.658
0.251429
-1.20474
135.165
-0.0586497
-0.752712
125.717
-0.458952
-0.308258
118.536
-0.78005
0.141085
112.722
-0.896347
0.682662
107.02
-0.833956
1.04301
99.4453
-0.646983
1.02631
88.6398
-0.354169
0.84731
77.6652
-0.148565
0.591784
73.7275
-0.205358
0.383462
88.2451
-0.305678
0.164766
105.534
-0.410758
-0.0410534
90.7736
-0.382394
0.0516703
57.9108
0.511727
57.5278
0.209599
-0.0237264
46.8512
0.0379551
-0.065901
70.587
-0.290985
0.0184847
101.492
-0.559033
-0.0259925
80.2999
-0.796553
-0.138465
61.5528
-0.783892
-0.394529
60.6201
-0.549993
-0.633234
64.0175
-0.201705
-0.402382
70.1113
0.140167
-0.0526116
76.2865
0.356763
0.161838
86.1866
0.453815
0.2753
97.8101
0.45315
0.288749
111.68
0.383563
0.269873
126.164
0.292925
0.240882
139.553
0.206029
0.211967
150.5
0.138136
0.188859
158.712
0.087541
0.163866
164.126
0.0519401
0.142533
166.631
0.0176766
0.111132
165.637
-0.019776
0.074748
160.461
-0.0731691
0.0147359
160.981
-0.155904
-0.0731188
165.824
-0.307732
-0.203213
165.32
-0.560245
-0.38761
160.106
-0.956653
-0.594157
149.518
-1.51936
-0.666715
134.838
-2.14844
-0.492768
122.558
-2.64512
-0.191108
114.823
-2.92893
0.0326032
109.023
-2.91157
0.166391
103.991
-2.52379
0.322343
99.5603
-1.93941
0.473658
94.0709
-1.33942
0.438139
87.8129
-0.795133
0.308718
83.5672
-0.455577
0.252892
86.1842
-0.378402
0.303098
99.6389
-0.427479
0.246867
109.687
-0.55697
0.188807
92.337
-0.616503
0.134157
53.578
-0.150553
47.6949
0.312049
-0.365938
45.745
0.101242
0.184978
64.8219
-0.266403
0.439198
98.6267
-0.561679
0.347117
75.5446
-0.784731
0.126587
58.6914
-0.639067
-0.508468
57.0968
-0.299132
-0.942107
58.1105
-0.0415511
-0.624144
64.7659
0.187392
-0.258599
74.6587
0.336293
0.0357002
85.3287
0.378026
0.263275
97.2507
0.34898
0.35232
112.075
0.267282
0.38123
127.152
0.173289
0.355517
140.572
0.077767
0.320291
151.294
-0.00619777
0.280305
159.295
-0.0855997
0.247935
164.512
-0.163824
0.225816
166.622
-0.265669
0.220153
165.036
-0.422122
0.232526
160.462
-0.664727
0.254261
161.999
-1.02432
0.302449
165.06
-1.58142
0.416196
160.708
-2.42572
0.590958
148.294
-3.65424
0.775043
131.186
-5.01753
0.776264
120.313
-5.93814
0.501335
116.052
-6.04236
-0.00703203
112.66
-5.489
-0.456127
108.879
-4.71515
-0.563133
104.932
-3.90262
-0.45836
101.247
-3.03219
-0.378775
98.005
-2.16478
-0.417199
95.8047
-1.39937
-0.44979
95.8418
-0.809593
-0.332881
99.9775
-0.397706
-0.107341
108.397
-0.180242
0.0444561
115.196
-0.200046
0.259134
106.251
-0.306975
0.286904
63.5545
-0.477581
47.4352
0.0917131
-0.496999
55.1934
-0.0637102
0.361386
77.5242
-0.147794
0.551871
100.834
-0.255825
0.510288
81.8079
-0.358241
0.272573
62.0485
-0.216704
-0.633648
54.6845
0.121786
-1.2693
54.0018
0.445617
-0.920717
58.858
0.590665
-0.360263
67.9986
0.603647
0.0768156
81.3714
0.54016
0.383892
97.3002
0.428305
0.517413
114.769
0.316888
0.533312
131.101
0.218375
0.48174
144.727
0.138734
0.418563
155.283
0.0791497
0.352917
163.111
0.0350178
0.302308
168.285
0.00161662
0.268352
170.744
-0.0311693
0.263063
169.986
-0.0760443
0.287491
165.504
-0.140728
0.327927
166.343
-0.224451
0.400703
170.543
-0.351156
0.571388
169.441
-0.539861
0.839648
163.856
-0.84305
1.18514
153.303
-1.33546
1.38909
139.351
-1.93554
1.20223
126.834
-2.50001
0.634483
117.249
-2.9163
0.0221713
109.819
-3.01974
-0.406294
104.436
-2.7283
-0.697889
98.2734
-2.15217
-0.911067
91.2025
-1.48585
-1.04118
84.039
-0.870361
-1.0299
78.3085
-0.393899
-0.78658
79.1151
-0.179507
-0.315771
93.0964
-0.102685
-0.030039
109.001
-0.105146
0.284092
108.976
-0.0602487
0.272718
73.4817
-0.559379
52.6161
-0.163025
-0.35419
64.9258
-0.144492
0.354089
83.7392
-0.0682851
0.483244
98.2026
-0.0991244
0.563249
82.5934
-0.0801575
0.276914
65.0207
0.0216775
-0.751422
54.9729
0.156683
-1.41825
53.8608
0.473643
-1.22407
57.0284
0.645359
-0.499364
65.2164
0.573363
0.210155
79.4855
0.420989
0.603353
99.2544
0.27758
0.712708
118.849
0.160563
0.68349
135.073
0.0655924
0.59623
147.815
-0.00814288
0.503796
157.482
-0.0643097
0.415687
164.606
-0.106536
0.349909
169.141
-0.139984
0.307072
171.105
-0.170238
0.299662
170.04
-0.207514
0.328734
166.052
-0.24777
0.370447
167.067
-0.261996
0.420978
170.884
-0.228997
0.549846
170.151
-0.106461
0.737624
166.355
0.129766
0.991587
160.019
0.368537
1.22177
150.535
0.411199
1.23462
140.047
0.133566
0.96838
131.111
-0.415799
0.606831
124.116
-0.939189
0.163751
115.421
-1.14825
-0.442143
105.376
-1.08793
-0.927447
94.8856
-0.850185
-1.22243
82.4432
-0.526808
-1.30273
70.0427
-0.253872
-1.03865
66.0681
-0.178042
-0.389035
79.016
-0.170251
-0.0397298
100.832
-0.0821484
0.210113
107.582
0.0360203
0.169169
76.966
-0.530384
57.448
-0.174356
-0.183103
66.1849
-0.0507057
0.234997
83.1317
0.107751
0.322236
93.6781
0.172927
0.49181
81.4684
0.315134
0.122588
67.1528
0.341826
-0.832481
58.609
0.269572
-1.38937
55.1729
0.433916
-1.38545
56.33
0.53568
-0.570209
65.1925
0.445396
0.360602
80.976
0.300746
0.808569
101.624
0.172794
0.882433
121.122
0.0764908
0.803031
136.438
0.00645902
0.679134
148.179
-0.0400757
0.557151
157.031
-0.0637588
0.444245
163.398
-0.069854
0.360477
167.515
-0.0624866
0.304555
169.337
-0.0468377
0.28936
168.391
-0.0330045
0.319415
164.155
-0.0235483
0.365046
164.888
-0.00397685
0.40697
169.36
0.0284381
0.525218
169.425
0.0995436
0.677846
166.556
0.243919
0.865066
161.669
0.459701
1.03367
154.602
0.646352
1.07969
145.98
0.705219
0.929826
136.844
0.65554
0.664932
128.271
0.458472
0.363988
119.766
0.0840865
-0.0664569
111.074
-0.299336
-0.518002
99.5175
-0.411272
-1.05256
82.6686
-0.321495
-1.34419
65.4596
-0.221714
-1.14066
59.9887
-0.113755
-0.510229
66.9007
-0.0928153
-0.0641554
84.7096
-0.0376936
0.154171
97.0372
0.0753228
0.0674335
80.442
-0.426946
58.5199
-0.017093
-0.151569
59.4634
0.201501
0.0176836
78.2267
0.440072
0.0862953
87.4893
0.684978
0.216535
79.9236
0.890655
-0.157394
68.4165
0.768795
-0.790427
62.5167
0.545701
-1.23885
57.1521
0.47863
-1.33601
55.9237
0.420043
-0.483767
64.8126
0.256879
0.576833
82.4785
0.0885536
1.0229
103.99
-0.0325264
1.02594
122.537
-0.114953
0.893538
136.691
-0.171134
0.737079
146.851
-0.198495
0.584164
154.499
-0.204489
0.449586
160.022
-0.188575
0.345059
163.561
-0.159878
0.277279
164.884
-0.115832
0.247339
163.574
-0.0679865
0.271394
159.329
-0.0193081
0.315981
160.162
0.0527222
0.33527
164.957
0.150738
0.428282
165.463
0.290686
0.5395
163.206
0.478078
0.680987
159.318
0.695431
0.822851
153.794
0.8777
0.907414
146.983
0.922985
0.891985
139.016
0.81702
0.771724
130.574
0.607803
0.56674
121.473
0.270463
0.263414
111.841
-0.106884
-0.130566
99.707
-0.296496
-0.807877
79.6367
-0.374282
-1.23048
61.2906
-0.466832
-1.07429
58.5323
-0.461231
-0.567051
65.9397
-0.399553
-0.146467
79.8074
-0.263756
0.0343358
88.6403
-0.130688
-0.0335094
74.9832
-0.48418
48.9818
0.264868
-0.364523
50.5186
0.629754
-0.276692
67.7088
0.986147
-0.21612
77.2836
1.331
-0.141273
76.529
1.48347
-0.37445
70.7698
1.26554
-0.659321
64.7861
0.890444
-0.950969
58.4598
0.561013
-1.04005
55.6211
0.307779
-0.200378
64.8117
0.0234594
0.912684
84.922
-0.148124
1.21691
107.172
-0.23051
1.11564
123.037
-0.287631
0.947711
134.725
-0.307382
0.752258
143.544
-0.300548
0.572985
150.19
-0.267777
0.414696
155.001
-0.214525
0.291783
157.994
-0.146747
0.211368
158.953
-0.0625668
0.165237
157.428
0.0224752
0.186836
152.723
0.0958593
0.242364
153.644
0.174223
0.258344
158.732
0.258868
0.343936
159.828
0.362104
0.434713
158.149
0.486154
0.553483
154.825
0.625871
0.677295
149.96
0.754201
0.771263
143.878
0.818545
0.816274
136.507
0.785539
0.789169
128.189
0.625586
0.707317
118.789
0.34837
0.520962
108.202
-0.00127837
0.208121
94.9384
-0.283676
-0.483339
74.7136
-0.502666
-0.997649
57.5948
-0.735318
-0.881591
57.0846
-0.843388
-0.50717
63.9727
-0.808491
-0.189891
71.6942
-0.653925
-0.0578962
73.5603
-0.385996
-0.199987
58.622
-0.782507
34.0913
0.528253
-0.791506
36.2326
1.08954
-0.704507
45.8199
1.6098
-0.590928
54.8446
1.95707
-0.391401
60.913
1.98469
-0.373813
62.4455
1.6621
-0.370903
60.821
1.18196
-0.538658
56.5938
0.652488
-0.545761
54.3751
0.06318
0.434405
65.3611
-0.300305
1.30058
90.6466
-0.416488
1.33568
108.317
-0.488483
1.17803
121.311
-0.511653
0.95788
131.075
-0.504954
0.733078
138.518
-0.465041
0.52402
144.151
-0.402625
0.346895
148.08
-0.316138
0.204015
150.361
-0.218213
0.114753
150.67
-0.0926286
0.0417152
148.596
0.0284827
0.0652465
143.449
0.12198
0.147412
144.65
0.230906
0.150377
150.335
0.351232
0.222914
151.955
0.489765
0.292517
150.771
0.639038
0.397581
148.049
0.778436
0.527856
143.926
0.886217
0.65036
138.631
0.925653
0.760314
132.107
0.873145
0.821689
124.432
0.718479
0.838213
115.469
0.451375
0.763789
105.085
0.020632
0.618828
92.3736
-0.391578
-0.0334695
69.6508
-0.714263
-0.668712
54.5215
-1.02092
-0.598135
53.9934
-1.18475
-0.341189
57.8427
-1.13874
-0.16572
58.4536
-0.862773
-0.206737
51.0123
-0.362505
-0.607031
36.1412
-1.13904
25.4411
0.392632
-1.18595
24.7489
0.940587
-1.25053
29.6961
1.42761
-1.04471
33.9764
1.77435
-0.664749
38.7947
1.86062
-0.375985
43.8956
1.66228
-0.124208
48.0311
1.2046
-0.0849514
49.3742
0.316258
0.342698
51.2291
-0.42253
1.19848
73.7533
-0.632773
1.51106
93.3751
-0.713134
1.40076
107.325
-0.735646
1.18034
117.823
-0.71799
0.919618
125.757
-0.66769
0.666672
131.834
-0.588481
0.433939
136.307
-0.487596
0.24172
139.314
-0.367506
0.0852884
140.754
-0.231075
-0.0150407
140.247
-0.0602879
-0.117784
136.912
0.0967859
-0.0836157
131.052
0.203387
0.0425752
133.646
0.301574
0.0573202
139.614
0.409685
0.116703
142.07
0.534418
0.165193
141.461
0.668093
0.256612
139.274
0.797649
0.385243
135.76
0.903187
0.5266
131.179
0.957693
0.682203
125.492
0.948204
0.803327
118.692
0.842766
0.911509
110.599
0.656471
0.916653
101.077
0.351107
0.891454
89.5376
-0.193186
0.503543
71.7706