/*--------------------------------*- C++ -*----------------------------------*\
  =========                 |
  \\      /  F ield         | OpenFOAM: The Open Source CFD Toolbox
   \\    /   O peration     | Website:  https://openfoam.org
    \\  /    A nd           | Version:  11
     \\/     M anipulation  |
\*---------------------------------------------------------------------------*/
FoamFile
{
    format      ascii;
    class       volVectorField;
    location    "400";
    object      U;
}
// * * * * * * * * * * * * * * * * * * * * * * * * * * * * * * * * * * * * * //

dimensions      [0 1 -1 0 0 0 0];

internalField   nonuniform List<vector> 
128000
(
(4.29893 -7.57536 13975.6)
(-8.03882 148.95 17390.4)
(-43.8023 288.236 17398.1)
(-37.3516 395.944 18267.9)
(-93.3268 551.398 19014.4)
(-122.281 637.235 19451)
(-172.168 705.013 19623.4)
(-214.016 699.817 19367.2)
(-230.897 634.47 18705.6)
(-217.116 528.439 17918.2)
(-178.451 412.754 16971.9)
(-180.591 222.318 17089.5)
(-102.406 -96.1431 26222.2)
(40.3933 -152.283 32097.7)
(101.666 -124.379 35069.3)
(99.3377 -63.4615 37715.6)
(84.8995 28.445 39475.4)
(21.4249 114.999 39374.9)
(-68.1545 110.794 35127.1)
(-141.82 11.4786 29247.2)
(-42.6837 -158.658 27003.4)
(92.1513 -153.685 32546.4)
(167.548 -42.3223 39063.3)
(110.368 30.689 40508.4)
(30.5402 29.135 37779)
(-18.5066 -6.05519 34157.5)
(-8.04647 -116.956 28005.5)
(222.759 -220.468 18482.4)
(467.954 -242.234 17107.1)
(620.634 -278.286 18252.9)
(748.073 -304.674 19210.5)
(860.057 -306.297 19970.9)
(907.19 -266.108 20475.4)
(894.029 -218.277 20513.4)
(805.788 -154.158 20171.2)
(695.215 -121.361 19526.2)
(525.515 -56.7174 18673.6)
(381.987 -56.019 17467.5)
(232.976 -22.4993 17294.4)
(64.4296 3.68926 15602.8)
(-8.25085 -129.461 17352.3)
(105.852 9.42161 18337)
(49.2904 192.077 19296.7)
(79.7206 270.711 20682.3)
(51.2276 488.356 21977.6)
(7.30051 575.915 22623)
(-60.1372 668.254 22995.9)
(-151.76 696.346 22806.6)
(-258.545 630.359 21804)
(-307.976 478.01 20465.6)
(-297.331 275.69 18915.8)
(-282.358 -21.0452 18608.6)
(-214.804 -255.839 29242.9)
(-46.515 -217.452 38649.5)
(92.2729 -152.617 42936.5)
(167.528 -92.8069 45366.5)
(190.469 -48.4301 47027)
(173.49 -28.458 47755.7)
(123.353 -55.1662 45808.2)
(-33.4283 -122.848 36720.4)
(-112.691 -79.9174 34234.6)
(-99.795 117.89 43883.1)
(-66.4518 165.196 47233.9)
(-73.2935 148.602 47604.3)
(-82.0908 75.564 46018.4)
(-119.499 -48.6301 42563.2)
(-176.566 -234.32 32760.1)
(-37.6712 -329.258 20440.5)
(296.409 -382.277 19343.2)
(537.27 -402.603 21180.7)
(730.422 -384.882 22631.9)
(865.548 -296.939 23787.3)
(901.008 -177.877 24390.7)
(858.85 -80.1041 24366.7)
(744.212 1.07561 23863.6)
(632.891 47.8113 22961.5)
(403.682 92.9862 21631.2)
(294.785 53.0986 19728.4)
(84.9527 120.721 18626.9)
(-40.861 5.56943 17385.6)
(-42.9595 -267.741 17305)
(47.9679 -170.521 19264.7)
(82.263 12.5229 20908)
(112.489 139.021 22423.7)
(140.729 297.175 23774.7)
(137.374 407.676 24760.9)
(116.24 515.937 25360.3)
(42.4423 563.259 25271.7)
(-97.4529 517.091 23703.7)
(-245.106 346.099 21480.5)
(-304.245 127.701 19513.6)
(-364.281 -201.49 19626.1)
(-356.808 -394.866 30075.7)
(-122.287 -299.609 40178.1)
(56.3078 -231.601 43617.8)
(139.986 -143.832 44925)
(200.823 -59.6059 46662.7)
(201.159 -31.6961 49583.6)
(155.983 -16.9709 52783.4)
(95.5337 -34.0629 54004.9)
(-32.3856 119.107 52079.3)
(-92.9464 200.863 52342.1)
(-115.232 191.525 51381.5)
(-137.712 138.835 50028.1)
(-186.016 19.4374 48324.7)
(-252.674 -126.215 45086.5)
(-349.108 -341.918 36099.2)
(-280.212 -425.57 22292.6)
(78.8301 -411.33 19973.7)
(355.051 -349.311 22037.4)
(581.691 -259.186 23993.3)
(718.377 -92.8987 25791.7)
(736.758 40.8064 26777.2)
(677.658 112.051 26788.2)
(557.024 149.826 26153.3)
(429.309 146.898 24907.3)
(240.484 126.449 23378.3)
(99.6701 85.6087 21564.1)
(-109.116 61.3714 19688.7)
(-222.363 -46.0788 17095.3)
(-34.4691 -371.557 18165.6)
(80.0758 -244.172 20607.9)
(116.154 -113.13 22403.2)
(178.213 15.0022 24024)
(213.482 167.243 25470.1)
(232.831 272.816 26562.2)
(228.192 367.079 27276.3)
(207.014 425.437 27392.8)
(80.1225 362.001 25853.7)
(-143.936 225.577 21885.7)
(-287.894 -41.6989 19682)
(-399.449 -325.017 20510.7)
(-468.123 -445.733 29183.4)
(-285.218 -340.913 35635.8)
(-13.8672 -218.148 37162.7)
(181.847 -130.327 37171.1)
(226.479 -78.0632 37545.5)
(225.242 -23.7583 39696.8)
(171.797 -21.298 42636.3)
(140.933 7.50907 43006)
(52.6073 147.485 38585.1)
(-48.2411 187.697 39674.2)
(-121.393 169.829 40174.8)
(-203.16 133.645 40473.2)
(-270.236 34.5684 40989.6)
(-350.1 -157.796 41098.5)
(-476.262 -421.347 36500.7)
(-495.945 -472.95 24306.6)
(-169.502 -389.578 20087.2)
(126.992 -277.206 21813.7)
(382.505 -111.927 24165.8)
(531.492 112.453 27372.4)
(562.606 214.592 28607.2)
(505.48 254.241 28642.2)
(395.608 263.355 27875.9)
(280.679 237.048 26655.8)
(107.647 212.107 25056.8)
(-40.5785 135.403 23205)
(-183.03 98.7864 21108.5)
(-332.74 -21.7173 18236.1)
(-89.1905 -524.015 18875.5)
(48.7059 -463.901 21860.5)
(141.514 -267.46 23681.4)
(212.329 -134.927 25410.6)
(292.55 16.7597 26975.2)
(327.686 136.949 28247.5)
(357.97 219.475 29100.6)
(335.551 281.122 29233.3)
(316.102 262.812 28420)
(40.3911 127.339 23373.7)
(-216.028 -92.5157 19769.4)
(-375.903 -367.006 21157.2)
(-505.636 -395.221 27462.2)
(-429.601 -257.211 31052.4)
(-280.147 -176.694 30869.7)
(-51.1513 -83.882 28220.1)
(183.355 -3.5012 30748.6)
(249.179 -7.63994 31125.9)
(222.11 -15.444 31740.9)
(216.243 74.2382 30470.2)
(186.016 205.282 28459.5)
(58.1152 189.106 28692.5)
(-15.693 156.527 29782.2)
(-96.4393 84.3795 31446.7)
(-222.4 -117.361 33009.2)
(-357.204 -338.342 35658.7)
(-477.299 -512.721 34176.3)
(-568.236 -506.053 25795.2)
(-339.793 -343.31 20238.3)
(-12.1584 -164.761 20800.3)
(207.155 132.612 24810.5)
(365.15 339.35 28959.4)
(372.826 380.981 30199.3)
(325.168 403.63 30291.3)
(228.898 373.646 29493.4)
(106.125 329.13 28139.7)
(-63.0331 251.146 26412.9)
(-211.138 150.725 24454.9)
(-427.584 77.5447 22393.5)
(-518.326 -89.6914 19037.1)
(-115.462 -601.351 19259.5)
(8.17549 -539.155 22413.7)
(137.761 -369.031 24557.4)
(231.746 -236.043 26418.7)
(326.496 -100.719 28161)
(387.122 18.3162 29714.6)
(433.593 102.086 30892.2)
(442.771 144.238 31378.3)
(416.651 157.819 30870.1)
(345.503 58.9304 28896.6)
(-124.931 -114.352 19583.9)
(-353.432 -281.547 21227)
(-458.398 -255.231 25080.8)
(-466.2 -113.898 27036.1)
(-392.343 17.0982 26880.7)
(-310.025 93.3431 25670.1)
(-185.284 99.5597 24517.2)
(54.0762 71.323 25716.4)
(192.105 31.6097 27558.5)
(257.811 112.066 27786.5)
(292.315 153.031 26788.8)
(236.017 24.8802 25024.8)
(178.368 -94.2059 25061.2)
(101.556 -237.311 26568.3)
(-4.6587 -349.938 29130.6)
(-166.922 -438.897 31094.9)
(-348.853 -512.833 30842.5)
(-508.48 -457.189 26059.8)
(-384.696 -273.506 20742.2)
(-94.7105 11.3853 20307.5)
(83.5756 385.064 27978)
(197.322 467.431 30938.4)
(202.023 506.169 32132.8)
(171.102 494.112 32003.6)
(84.0907 442.384 30934.4)
(-30.7388 369.782 29292.8)
(-182.075 267.55 27357.5)
(-314.055 165.533 25269.1)
(-505.708 41.9905 22946.1)
(-618.95 -109.665 19501.2)
(-163.067 -662.502 19365.2)
(-61.0014 -627.604 22725.5)
(118.133 -480.246 25105.4)
(225.556 -329.64 27035.7)
(355.103 -180.493 28912.7)
(433.905 -63.6851 30797.3)
(494.357 18.112 32442.9)
(521.652 64.9128 33501.5)
(506.752 68.4938 33684.8)
(462.975 39.5697 32774.8)
(302.81 -69.5232 30652.5)
(-281.491 -168.782 21747.4)
(-431.757 -113.123 23390.8)
(-453.653 41.2813 24308)
(-440.079 114.044 24366.3)
(-370.563 163.679 24034.6)
(-308.84 120.676 23803.9)
(-238.72 19.7005 24521.7)
(52.7214 -35.5637 27227.5)
(233.565 61.1896 28428.7)
(277.17 14.5141 26697.1)
(258.372 -165.828 23912.8)
(315.342 -278.939 23827)
(308.886 -325.688 24558.5)
(209.224 -390.86 25800.8)
(36.9424 -454.155 26955.6)
(-145.642 -460.838 27073.8)
(-340.24 -411.69 24881.2)
(-325.043 -181.632 21191.4)
(-144.917 329.334 28547.1)
(12.1715 525.086 32096.4)
(68.603 585.444 33946.1)
(82.9938 598.728 34402)
(51.9195 564.363 33678.8)
(-25.8728 490.873 32099.5)
(-134.631 398.552 30043.6)
(-281.158 273.662 27901.2)
(-436.609 138.576 25755.4)
(-624.711 -10.6924 23256.7)
(-723.429 -171.664 19736.1)
(-200.617 -646.369 19014.7)
(-151.623 -645.229 22411.4)
(37.9387 -515.065 24893.5)
(207.8 -380.026 27076)
(329.49 -242.422 28925.2)
(436.269 -106.127 31183.7)
(514.63 -28.9897 33409.7)
(560.732 17.6533 35170.7)
(567.859 27.682 36150)
(526.344 2.3354 36097.1)
(454.079 -58.1397 34852.9)
(241.088 -101.158 31914.7)
(-260.74 -34.347 25561.7)
(-361.368 29.6749 24976.4)
(-413.141 100.477 24586.8)
(-399.3 65.7246 24252.7)
(-356.338 -7.85081 24136.6)
(-311.209 -110.994 24947.3)
(-161.958 -80.0333 27964.1)
(117.765 54.7917 29889.9)
(173.002 -14.3923 28945.7)
(72.8995 -172.016 25771.4)
(143.423 -266.655 24453.2)
(213.967 -322.68 24390.1)
(219.874 -379.58 24610.7)
(150.999 -397.203 24968.9)
(-15.2738 -361.805 25104.2)
(-166.583 -261.037 24610.2)
(-217.045 232.457 29317.9)
(-134.964 513.664 33833.1)
(-55.0455 613.107 36138.7)
(-8.22675 648.881 36933.6)
(7.73251 635.876 36472.3)
(-19.2074 580.728 34947.6)
(-85.7125 487.029 32660.8)
(-186.053 374.16 30052.7)
(-327.561 225.414 27638.1)
(-471.694 97.3648 25239.1)
(-672.993 -85.1061 22908.6)
(-769.628 -211.279 19637.3)
(-210.246 -573.304 18317.9)
(-254.706 -561.735 21218.4)
(-108.65 -453.974 22950.6)
(59.4339 -295.26 25041.9)
(310.136 -209.389 27965.5)
(414.75 -115.284 30604)
(499.905 -34.8814 33507.4)
(567.937 5.42154 36083.2)
(594.17 15.3904 37945.4)
(577.338 -9.21114 38866.5)
(519.889 -60.4675 38630.7)
(420.167 -130.485 37177)
(250.107 -125.483 34362.1)
(-84.7455 -92.6421 29076.4)
(-215.03 -95.5978 26729.5)
(-307.253 -98.1086 25593.1)
(-330.764 -161.404 25165.8)
(-322.198 -207.347 26093.9)
(-226.898 -68.7122 29100.7)
(-67.9915 63.4459 30995.1)
(80.8287 -7.94962 31249.2)
(-52.5092 -131.632 29302.1)
(-83.4929 -215.417 27146.9)
(-47.5325 -204.957 27038.8)
(-16.8117 -212.805 27288.5)
(-60.7873 -141.14 27959.7)
(-118.976 -58.6429 29297.1)
(-210.251 258.652 33545.1)
(-232.43 494.787 37067.8)
(-162.178 612.174 38996.1)
(-93.992 664.274 39740.1)
(-43.5039 668.911 39352.8)
(-21.5404 633.686 37902.6)
(-42.5376 559.458 35466.7)
(-95.5769 445.799 32305.7)
(-185.895 317.916 29031.4)
(-289.895 166.795 26202.3)
(-447.417 7.69944 23610.8)
(-676.912 -154.167 21966.7)
(-780.001 -259.119 19260.8)
(-187.082 -469.322 17479.5)
(-287.615 -403.03 19840.5)
(-243.021 -268.818 20679.2)
(-163.56 -156.726 21013.4)
(-7.89642 -79.8356 21940.6)
(321.126 -13.9168 28580.1)
(445.275 -2.70528 32459.6)
(519.464 28.1775 35981.8)
(572.646 38.9785 38816.4)
(567.31 13.9893 40848.2)
(535.464 -41.3299 41780.5)
(466.023 -104.728 41554.3)
(369.795 -172.817 40150)
(255.766 -190.769 37276.2)
(31.7019 -200.424 32490.3)
(-121.6 -224.168 29525.2)
(-256.303 -245.209 27881.2)
(-281.551 -209.021 29135.8)
(-249.033 -21.7755 32524.1)
(-149.723 42.1358 34322.9)
(-90.7293 13.2905 34841)
(-105.344 -89.5792 34012.4)
(-192.293 -70.6713 32586)
(-206.806 -32.7132 32868.6)
(-228.939 53.0646 33843.9)
(-244.368 147.994 35648.8)
(-271.065 321.964 38937.4)
(-288.301 449.229 41132.6)
(-232.772 553.505 42419.8)
(-159.989 619.133 42857.9)
(-89.1706 639.609 42375.7)
(-34.8027 625.829 40931.3)
(-7.51035 575.268 38499.9)
(-24.2165 481.124 35024.2)
(-56.331 347.081 30704.1)
(-103.433 193.326 26500.4)
(-181.133 1.17614 22040)
(-372.248 -53.9681 21037.8)
(-621.548 -212.416 20746.9)
(-750.151 -284.661 18690.8)
(-155.817 -349.975 16533.6)
(-268.389 -181.477 18242.6)
(-293.347 -34.2962 18796.6)
(-285.148 123.733 19062.6)
(-233.289 153.932 19289.2)
(-164.854 157.088 19303.6)
(271.488 92.6766 30011.1)
(441.391 83.4096 34724.9)
(514.602 84.7392 38554.8)
(533.549 65.8818 41745.8)
(502.4 9.90087 43815.2)
(451.128 -65.5687 44793.1)
(381.339 -129.12 44752.3)
(289.138 -199.391 43578.2)
(189.059 -240.257 40773.8)
(20.9781 -255.447 37430)
(-131.543 -263.325 34701.8)
(-227.195 -163.719 35791.9)
(-219.071 -28.9035 38369)
(-178.067 13.5281 38283.4)
(-145.645 17.4737 38410.6)
(-188.929 -23.7229 38889.9)
(-232.332 21.1186 39566.5)
(-271.2 99.3209 40501)
(-288.561 187.13 41906.7)
(-291.484 306.466 44134.6)
(-284.279 386.97 45462.6)
(-240.471 476.906 46103.9)
(-187.332 545.424 46127.7)
(-114.202 583.744 45464.7)
(-50.8673 586.676 44024.9)
(6.87877 556.304 41682.6)
(32.5003 488.053 38307.7)
(21.2272 363.025 33531.9)
(29.743 168.812 27548)
(47.9153 -57.1896 20814.7)
(-23.2694 -38.4603 20032.3)
(-201.44 -93.0283 19232.7)
(-544.565 -253.748 19581.5)
(-702.267 -304.144 17993)
(-163.427 -113.15 18308.8)
(-261.278 130.525 19943.4)
(-363.648 300.053 21015.1)
(-417.207 394.133 21805.3)
(-402.85 396.554 22100.1)
(-383.434 290.364 21710)
(-308.441 162.512 22058.6)
(219.583 110.561 31737)
(409.553 149.559 37104.1)
(460.677 127.705 41508.5)
(448.01 85.1585 44778.1)
(402.865 11.3981 46808.9)
(342.652 -61.7087 47893.2)
(276.419 -120.809 48149.5)
(187.253 -176.6 47588.9)
(86.8876 -207.602 45660.5)
(-46.1659 -206.529 43744.4)
(-144.954 -119.807 43919.8)
(-166.848 -40.7539 44529.9)
(-165.059 1.8107 42897.1)
(-146.901 21.6506 43118.6)
(-179.235 32.823 44371.7)
(-208.894 96.2957 46031.2)
(-230.973 161.453 47242.8)
(-239.056 247.73 48574.7)
(-233.172 317.876 49415.8)
(-208.018 392.495 49645)
(-179.422 455.779 49369.3)
(-126.532 499.39 48556.7)
(-68.6883 520.365 47122.4)
(-10.32 502.828 44949.9)
(44.8131 453.155 41841.3)
(66.617 362.134 37498.8)
(51.9255 149.289 30474.7)
(123.144 -159.077 23478.3)
(182.024 -133.054 22329.5)
(182.691 -114.285 20702.7)
(-33.1995 -168.589 18390.5)
(-389.701 -280.995 18309.2)
(-632.711 -302.764 17207.9)
(-40.1155 178.063 28895.1)
(-159.99 289.699 32504.5)
(-290.402 392.92 33195.4)
(-422.234 430.222 30944.9)
(-480.785 358.147 28194.5)
(-449.857 208.933 25210.3)
(-429.11 77.4522 23441.8)
(-252.006 26.8232 25908.3)
(247.418 134.159 34344.9)
(366.357 188.514 40119.8)
(379.744 141.627 44734.8)
(342.422 78.5856 47867.1)
(296.611 4.70874 49786.2)
(233.077 -60.8886 50910.5)
(172.654 -113.185 51365.6)
(87.2551 -147.267 50988.3)
(4.12445 -151.171 50298.9)
(-78.9803 -99.5761 50065)
(-105.323 -52.7068 49481.6)
(-137.176 -10.9292 47250.8)
(-131.657 21.2966 47613)
(-168.642 55.153 49270.7)
(-182.647 113.291 50964.6)
(-198.746 181.576 52054.5)
(-196.735 248.463 52731.1)
(-180.426 324.16 52796.7)
(-159.076 382.999 52414.4)
(-121.754 437.198 51554.4)
(-81.4188 462.335 50189.6)
(-28.8949 464.17 48205.3)
(16.6359 419.188 45496.2)
(75.9588 350.508 41778.2)
(60.7139 192.471 36248)
(16.2544 -155.452 26862.6)
(111.176 -246.7 26375.9)
(263.395 -205.106 27606.4)
(345.803 -193.731 26060.3)
(226.637 -199.422 20843)
(-158.18 -274.096 17298.7)
(-538.694 -278.827 16307.2)
(85.3312 174.938 32593.3)
(15.1647 229.475 39578.6)
(-51.6527 294.684 40795.1)
(-201.041 322.235 36010.6)
(-386.202 235.114 30961.8)
(-438.05 83.9557 26778.3)
(-442.283 -63.1143 24203.5)
(-346.896 -22.3903 25130.4)
(-66.295 108.171 29309)
(253.622 210.624 37267.4)
(287.8 212.109 43582.6)
(273.917 143.098 48103.6)
(232.177 74.7581 50906)
(187.899 12.3611 52690.3)
(133.824 -38.8033 53833.9)
(76.9725 -68.201 54337.7)
(15.4268 -79.0757 54337.9)
(-40.166 -53.1922 54136.8)
(-64.3899 -23.572 53372.7)
(-92.7237 11.417 51241.4)
(-93.4916 47.598 51581.7)
(-111.636 84.4205 53266.8)
(-115.117 140.668 54758.6)
(-117.266 193.117 55440.9)
(-112.059 254.796 55503.6)
(-104.005 310.851 55093.3)
(-88.1071 361.654 54267.3)
(-74.5166 399.66 52978.7)
(-48.1908 407.911 51206.4)
(-25.4886 392.754 48852.7)
(15.4817 320.498 45828.1)
(33.1999 233.949 41698.3)
(-6.18909 -15.8849 34389.4)
(-83.9771 -219.973 27763.9)
(-13.3544 -274.592 28657.9)
(172.338 -251.732 32680.1)
(282.638 -224.656 35144.5)
(292.167 -213.504 31386.3)
(97.0812 -223.516 21633.7)
(-381.549 -249.396 15794.2)
(125.559 145.249 35477.4)
(129.028 166.324 43256.6)
(94.6093 227.164 43845.4)
(48.0687 212.138 37158.7)
(-227.499 170.78 30307.4)
(-372.109 -34.3041 26488)
(-426.237 -118.374 24257.4)
(-401.909 -84.17 24681.2)
(-197.518 109.452 26960.3)
(40.8821 217.884 32728.9)
(191.072 247.014 40867.2)
(186.905 192.707 47516.2)
(174.097 116.946 51339.3)
(134.614 53.9359 53786.8)
(106.316 -0.380506 55402.4)
(58.0763 -33.5373 56405.4)
(25.1051 -51.8969 56802.9)
(-20.2166 -41.1769 56748.7)
(-34.8181 -25.9163 56023.4)
(-64.6474 1.53805 54082)
(-67.5573 33.5741 54409)
(-86.4557 71.5764 56075.4)
(-85.3152 122.292 57215)
(-84.4561 180.786 57469.4)
(-75.1794 243.986 57216.6)
(-63.2756 311.409 56496.9)
(-53.9412 365.615 55377.3)
(-46.2235 402.178 53785.1)
(-41.4836 401.907 51779)
(-35.3232 359.552 49295.3)
(-20.4325 271.853 46260.5)
(-2.872 130.649 42096.3)
(-39.1494 -90.0559 35005.1)
(-176.233 -248.819 28807.9)
(-100.523 -283.363 29563.3)
(75.3689 -208.79 34624.9)
(174.982 -160.869 40714.6)
(188.06 -152.525 42675.9)
(98.7786 -159.041 34593.7)
(-171.798 -211.261 20516.3)
(119.469 77.7499 37794.8)
(196.021 111.345 45543.9)
(171.052 144.425 45119.8)
(216.676 147.334 37394.6)
(4.17036 82.5468 28959.9)
(-287.488 -71.4228 25625.3)
(-358.691 -150.86 24083.5)
(-391.659 -37.4228 24386)
(-294.759 118.04 25801.5)
(-114.404 245.264 29811.6)
(25.9427 267.927 37646.5)
(83.6268 229.351 45639.7)
(86.2701 157.98 50933.8)
(73.4532 96.8419 54216.5)
(54.9868 44.6463 56404.5)
(29.2085 15.6412 57737.7)
(8.56954 -2.33575 58483.4)
(-15.9522 1.40287 58584.4)
(-21.4542 13.2087 57992.7)
(-31.8604 35.898 56298)
(-25.3152 65.3576 56546.3)
(-24.2298 97.6432 58090)
(-11.1825 142.935 58867.6)
(1.81276 191.408 58826.5)
(15.1347 247.973 58248.2)
(17.6629 305.332 57171.5)
(6.28047 356.167 55666.1)
(-24.0409 387.949 53711.8)
(-57.5625 375.324 51520.7)
(-92.9946 320.593 49100.6)
(-112.463 195.129 46381.6)
(-124.446 38.8661 42600.9)
(-138.475 -156.086 36530.4)
(-232.248 -256.783 30069.5)
(-187.428 -265.343 29850.8)
(-27.229 -146.85 35009.3)
(67.5081 -90.5093 43308.2)
(80.3741 -60.9311 49344.9)
(-20.0424 -63.4255 43418.6)
(-172.85 -175.04 29787.3)
(93.9443 -15.8063 39200.8)
(204.761 67.3434 47161.6)
(219.355 70.0537 47086.5)
(242.219 98.9599 38111.9)
(221.781 27.7604 31300.2)
(-160.403 -66.6752 24605.2)
(-312.54 -85.7643 23986.8)
(-350.034 33.1377 24310.5)
(-323.221 174.259 25374.8)
(-244.989 258.571 28186.4)
(-118.79 265.754 35101.3)
(-40.4406 219.061 43878.1)
(9.45479 152.423 50270.7)
(16.7012 94.3486 54226.6)
(26.164 44.3556 56759.9)
(11.5129 12.8588 58405.7)
(9.53763 -10.9295 59320.5)
(-7.58267 -15.4614 59524.8)
(-4.9968 -14.5805 58945.9)
(-13.4259 -0.743313 57272.2)
(-5.17425 18.4169 57532.8)
(-4.61217 46.8982 59068.5)
(10.8221 91.5256 59569)
(25.1031 152.709 59233.1)
(42.3649 230.842 58352.3)
(48.9481 324.512 56900.2)
(34.2851 407.168 54962.6)
(-4.30161 447.059 52642.8)
(-53.4886 415.882 50421.5)
(-118.83 319.919 48344.6)
(-170.37 167.305 46364.2)
(-186.995 -15.4178 43433.1)
(-181.053 -188.491 38267.2)
(-246.364 -273.755 31816.2)
(-204.966 -243.398 30629.6)
(-75.3702 -86.8404 36122.4)
(34.5403 -39.6172 45705.9)
(55.9825 23.3166 53165.3)
(-60.8434 -15.1328 46404.2)
(-259.64 -143.307 36082.5)
(25.5197 -78.9338 38386)
(189.701 51.0199 47862)
(213.061 54.3431 49766.3)
(240.304 52.678 39768.9)
(263.397 42.067 30934.6)
(118.472 -35.0974 26478.9)
(-227.14 1.53742 24831.4)
(-315.115 120.751 25207.3)
(-314.958 214.433 26412.4)
(-278.284 221.058 29536.1)
(-219.096 178.604 36035.8)
(-144.097 149.354 43843.2)
(-80.3143 117.664 49898.9)
(-49.5532 86.862 53935.4)
(-30.8982 53.2327 56671.3)
(-27.3917 32.8883 58496.7)
(-21.054 17.1924 59579.4)
(-21.971 15.6561 59920.2)
(-10.5047 20.4337 59422)
(-0.785541 35.6864 57835.5)
(22.6189 54.5348 57963.3)
(47.382 81.4085 59417.7)
(86.7596 120.422 59739.2)
(129.8 171.797 59093.2)
(169.616 239.998 57724.4)
(174.988 324.737 55541.8)
(127.405 391.378 52760.8)
(44.4902 393.31 49958.6)
(-40.8262 326.137 47795.3)
(-141.017 224.583 46160.4)
(-229.693 35.3947 44810.9)
(-254.837 -181.295 42785.2)
(-221.142 -310.088 38462.3)
(-235.32 -322.012 33266.7)
(-200.631 -225.675 31877.5)
(-116.874 -65.4541 37681.9)
(-11.1136 -25.0737 48099)
(26.5709 74.1322 54741.4)
(-34.4889 9.09448 43992.1)
(-301.925 -206.072 36466.7)
(-62.0415 -63.0498 32791.9)
(128.407 65.2159 46397)
(175.339 34.3422 52261.8)
(195.372 35.3268 41207.4)
(250.089 3.77482 30597.7)
(244.99 -42.7588 27610.8)
(149.943 6.12267 27756.3)
(-133.81 73.8726 28950.3)
(-190.897 40.5273 29847)
(-230.344 34.6145 33183.2)
(-199.991 41.534 38576.7)
(-161.456 66.5829 44336)
(-98.5088 60.7362 49246.9)
(-68.4151 45.9324 53109.3)
(-36.7763 18.1418 55905.5)
(-28.5395 -0.798589 57844)
(-11.2703 -20.9888 58973.2)
(-7.27999 -30.0099 59290.1)
(10.0575 -38.6489 58605.7)
(20.254 -40.1367 56894.5)
(45.3713 -42.8787 57215.5)
(68.7415 -32.8606 58670.2)
(105.698 -3.84043 58627.1)
(145.22 59.765 57584.3)
(192.973 173.673 55710.7)
(226.005 318.707 52680.4)
(237.345 376.867 49316.7)
(235.7 297.632 46711.7)
(251.72 123.487 44978)
(196.425 -92.7982 43800.6)
(63.0123 -348.742 42709.8)
(-73.1315 -462.954 40882.1)
(-91.6268 -451.432 37654.6)
(-122.226 -348.406 34195.8)
(-110.288 -204.22 33748.4)
(-49.6797 -87.0131 42135.8)
(85.3557 -80.3792 52769.4)
(140.039 -20.309 47715)
(115.245 -171.186 32075.1)
(-176.329 -289.159 33736.7)
(-86.341 5.13037 27324.2)
(-26.919 115.84 38920.6)
(121.173 19.5302 53074.3)
(165.178 -36.1067 39997.3)
(250.084 -117.643 29281.3)
(293.246 -129.198 27639.8)
(282.868 -50.9005 28080.6)
(157.636 -26.5732 29676.2)
(-41.1826 -43.891 31256.4)
(-121.472 10.0728 34287.5)
(-162.939 26.0929 37890.7)
(-168.682 45.1865 42248.5)
(-144.042 38.9216 46736.6)
(-116.866 32.8957 50759.8)
(-87.1868 14.4036 53894.3)
(-68.8774 5.2142 56105)
(-49.5386 -6.87505 57424.6)
(-39.1855 -8.00758 57854.1)
(-21.2441 -8.92179 57215.3)
(-3.7252 -1.1433 55286.3)
(28.2432 8.96468 55465.5)
(73.7562 31.5455 57281.2)
(153.033 63.5548 57403.3)
(275.423 103.914 56031.2)
(431.992 125.619 52883.1)
(557.335 42.4912 48317.4)
(610.192 -188.305 44597.5)
(597.197 -474.756 42545.9)
(579.953 -673.545 41249.9)
(573.401 -780.088 40286.7)
(486.972 -786.72 39605.1)
(325.467 -711.856 38539.4)
(195.121 -575.36 37164)
(96.6041 -403.488 36647.2)
(15.3359 -255.422 39288)
(-26.0238 -203.621 47374.2)
(22.1871 -180.993 54600.7)
(85.8742 -154.515 48317.4)
(189.037 -170.097 29538.9)
(132.382 -193.891 27798.2)
(-24.4977 130.625 26668.5)
(-106.527 85.0487 35745.7)
(-37.8203 -121.503 51580.7)
(44.879 -148.58 37629.3)
(191.539 -189.841 27921.2)
(306.693 -96.33 26038)
(289.488 68.0568 25492)
(153.417 84.5925 27419.2)
(51.2045 79.2731 30590.2)
(-88.7035 54.7223 33944.5)
(-134.769 27.2049 37674.2)
(-153.013 23.3093 42399.1)
(-130.83 1.17388 47102.8)
(-112.778 -11.105 51129.8)
(-78.7701 -30.375 54177.9)
(-58.1848 -39.4297 56310.7)
(-29.7651 -53.4529 57559.1)
(-12.8811 -61.2311 57851)
(12.3728 -77.1516 57008.9)
(36.9547 -96.6821 55285.6)
(84.5746 -136.357 55813.8)
(145.508 -191.992 57020.4)
(238.168 -286.729 55817.3)
(377.488 -432.858 51929.2)
(596.606 -651.87 46419)
(923.408 -951.192 43104.3)
(1228.76 -1219.74 42225)
(1384.33 -1332.23 41747)
(1333.12 -1263.72 41197.1)
(1175.59 -1117.44 40652.2)
(990.154 -980.083 40278.4)
(785.578 -828.776 40152.7)
(600.295 -622.856 40546.7)
(430.598 -411.491 42031)
(261.991 -261.481 45578)
(111.507 -174.305 51540.9)
(20.6012 -104.355 57333.6)
(-26.7496 -93.8249 55565.6)
(-0.514251 -154.172 35050)
(202.909 18.3949 27661)
(97.3293 175.521 32360.6)
(-95.5001 -78.489 42962.9)
(-106.893 -171.334 52980.9)
(-81.6423 -149.425 40922.2)
(35.7934 -145.901 29644.9)
(233.33 51.8417 25031.5)
(292.309 236.455 23770.7)
(94.0028 241.142 25004.1)
(-78.3776 179.42 27964)
(-143.457 139.501 32487.5)
(-198.109 67.7697 37820.8)
(-202.474 19.5201 43554.8)
(-182.562 -20.8256 48709.5)
(-151.714 -31.607 52790.9)
(-118.637 -46.0181 55760.2)
(-94.7526 -45.3367 57815.3)
(-72.7339 -52.6896 59035.6)
(-63.0383 -51.871 59437)
(-54.9178 -63.7921 58870)
(-58.4687 -75.24 57171)
(-56.3172 -103.532 57460.6)
(-67.1189 -138.987 59064.3)
(-90.9161 -210.39 58989.4)
(-131.738 -313.792 57498)
(-162.28 -448.042 54370.3)
(-103.346 -552.208 50073.5)
(121.352 -597.164 46288.1)
(439.345 -534.399 43574.5)
(750.71 -472.433 41677.2)
(877.296 -486.545 40589)
(849.574 -500.275 39230)
(740.306 -400.585 37502.8)
(610.991 -244.083 35706.6)
(456.49 -84.5856 34483.5)
(292.063 4.60599 36219.8)
(123.452 33.4208 44457)
(60.0323 -26.2091 54492.9)
(-58.307 -84.9497 57255.6)
(-23.8276 -125.286 40728.4)
(118.642 158.856 30858.7)
(183.313 71.2195 38522.9)
(-60.2432 -135.828 46896.8)
(-115.542 -157.382 52098.5)
(-141.435 -129.182 41679.7)
(-26.8829 -114.358 31323.1)
(164.058 161.398 25352.8)
(347.455 314.296 23878.8)
(189.205 312.753 24396.2)
(-40.9051 247.183 26999.8)
(-192.125 108.72 31945)
(-227.351 3.09798 38825.5)
(-221.842 -59.1779 45373.8)
(-182.378 -84.0503 50474.1)
(-145.396 -90.6789 54218.4)
(-103.561 -92.3324 56858.1)
(-75.0495 -86.7654 58656.2)
(-46.3032 -85.3205 59647.1)
(-32.0068 -80.6532 59871.5)
(-17.8961 -86.0732 59191.3)
(-17.5957 -92.1286 57652.8)
(-8.87888 -109.247 58004.9)
(-12.471 -121.803 59485.2)
(-35.3614 -149.688 59539.6)
(-93.1066 -177.736 58669.4)
(-193.973 -209.893 57033.1)
(-323.52 -214.136 54368.5)
(-374.828 -191.128 51385.3)
(-306.659 -159.033 48997.7)
(-136.609 -187.459 47374.5)
(126.386 -204.7 45136.5)
(367.619 -147.742 42337.2)
(472.48 -40.4351 39283.7)
(502.912 41.2288 35286.3)
(426.148 132.531 31085.2)
(299.459 133.255 30490.3)
(97.4021 45.6243 38055.8)
(53.8117 -67.9487 50870.7)
(-39.262 -109.076 57078.1)
(-48.0687 -92.4357 43105.2)
(111.793 211.705 34091.3)
(142.864 3.59416 39969.8)
(-52.619 -106.716 47306.8)
(-130.728 -86.5172 50438.5)
(-212.119 -86.3469 41671.9)
(-110.905 -17.6441 32755.5)
(89.5186 290.823 27343.9)
(310.961 359.353 24729.9)
(251.038 366.32 24355.3)
(-7.90371 230.346 27268.3)
(-190.606 59.8647 32863.8)
(-254.504 -74.7539 40124.6)
(-239.294 -117.109 46656.9)
(-197.127 -137.349 51427)
(-155.462 -126.091 54810.6)
(-114.332 -122.186 57161.5)
(-88.1464 -103.913 58695.5)
(-66.2962 -97.846 59541.9)
(-61.3653 -84.5459 59715.9)
(-60.5067 -87.3404 59071.3)
(-77.7088 -88.9041 57434)
(-88.571 -105.287 57690.2)
(-108.015 -113.277 59411.1)
(-139.053 -142.228 59747.7)
(-187.356 -169.622 59203)
(-247.063 -196.071 58078.4)
(-321.721 -187.332 56284)
(-364.018 -131.455 54002.9)
(-336.613 -34.7983 51577.8)
(-252.215 46.7363 49396.7)
(-172.444 102.988 47261.2)
(5.53326 154.014 45049.3)
(209.874 174.355 41620.3)
(365.407 183.128 35769.2)
(381.119 256.762 29385.8)
(318.479 222.205 28012.8)
(142.383 84.4612 32632.4)
(37.3947 3.22136 43331.6)
(-5.14535 -71.7602 52248.3)
(-24.9067 -14.3777 45779.6)
(78.5935 179.754 35358.2)
(63.2093 10.7248 36776.2)
(-60.7305 -24.1169 45490.1)
(-181.538 39.3695 48064.4)
(-269.431 31.1388 41640)
(-245.022 200.224 33929.1)
(-26.5918 389.652 29638.9)
(190.289 427.876 26002.9)
(241.091 407.86 24525.5)
(31.1481 238.032 27485.2)
(-200.864 -22.2936 33914)
(-254.756 -154.901 41572.6)
(-232.287 -200.611 47769.1)
(-177.28 -194.665 52121.6)
(-128.56 -180.478 54933.1)
(-83.6187 -159.122 56859.7)
(-52.9609 -134.86 58102.6)
(-28.6462 -113.883 58752.6)
(-21.2067 -92.0419 58753.8)
(-17.8734 -80.5174 57976.1)
(-35.6565 -70.0282 56320.4)
(-46.9933 -70.4118 56614.6)
(-65.6726 -60.1901 58465.9)
(-101.188 -65.6374 58959.7)
(-153.494 -67.8356 58625.1)
(-222.647 -72.3219 57847.6)
(-305.876 -65.1329 56601.9)
(-376.561 -43.2641 54984.3)
(-404.396 -4.7017 53006.2)
(-363.341 17.7633 50892.3)
(-271.527 49.7843 48538.8)
(-144.445 69.9484 45957.7)
(26.1727 67.0393 42272.6)
(253.932 157.069 34961.4)
(353.02 262.579 27935.8)
(345.698 187.959 27771.4)
(234.063 11.7398 32710.2)
(111.226 -113.994 41583.7)
(51.8943 -162.987 48703.4)
(28.9005 -69.8212 43620.6)
(115.714 93.6819 30329.1)
(21.8607 68.6916 32219.4)
(-106.114 130.128 40515)
(-254.972 210.698 43581.3)
(-359.222 258.095 40833.7)
(-364.276 414.335 35884.7)
(-201.193 479.57 31354)
(6.66496 480.768 27113.7)
(148.819 413.397 24837.3)
(-26.338 168.519 27968.3)
(-215.122 -108.482 35500.5)
(-252.391 -265.189 43519)
(-216.369 -263.278 48692.9)
(-154.975 -255.13 52126.3)
(-107.796 -220.142 54461.8)
(-64.0578 -192.566 56041.4)
(-39.5107 -154.28 57044.2)
(-21.7882 -127.26 57510)
(-24.3993 -96.854 57385.8)
(-30.9968 -80.42 56525.4)
(-61.6018 -63.7926 54685.8)
(-86.7453 -65.298 55015.3)
(-108.853 -50.9169 56993.4)
(-141.801 -56.2166 57701.2)
(-182.037 -55.6143 57565.7)
(-226.744 -57.2109 56978.7)
(-277.765 -49.3532 55954.8)
(-317.151 -30.1475 54586.7)
(-340.415 0.407536 52812.4)
(-323.91 25.6631 50722.9)
(-282.758 39.1402 48219.3)
(-177.324 45.3643 45200.1)
(-28.5313 67.1943 40948.3)
(192.905 137.293 33403.1)
(324.973 207.583 26757.1)
(355.685 103.295 27642.9)
(315.523 -78.4377 32442.5)
(249.857 -188.683 38254.9)
(201.731 -217.571 41487)
(158.493 -145.919 35100.3)
(185.266 108.086 21772.4)
(92.4103 182.687 24016.6)
(-139.592 284.295 28411.1)
(-346.415 403.183 31966.6)
(-499.165 484.878 33510)
(-509.277 556.633 32568.4)
(-393.749 538.219 30205.8)
(-189.791 472.05 26881.9)
(-30.9622 374.165 24825.9)
(-82.1605 89.9294 28811.9)
(-231.589 -288.444 38648.8)
(-232.685 -343.753 44826.3)
(-167.261 -339.374 48893.7)
(-108.926 -304.896 51616.2)
(-54.0342 -264.205 53460.4)
(-13.0185 -217.009 54690.5)
(13.9884 -170.596 55390.7)
(29.6397 -126.416 55613.1)
(27.2894 -85.6825 55259.4)
(21.559 -51.9699 54193.9)
(-15.6071 -21.0348 52169.2)
(-43.6593 -13.7917 52605.5)
(-68.1095 5.87357 54827.5)
(-108.759 13.2981 55729.9)
(-153.066 22.359 55763.7)
(-210.469 28.0382 55378.1)
(-270.578 30.0516 54604.2)
(-325.408 29.8745 53503.3)
(-363.7 27.7871 52020.9)
(-370.677 18.1261 50147)
(-343.343 3.71437 47775.5)
(-276.741 -22.0496 44784)
(-161.4 -46.2585 40685.9)
(107.828 2.89807 31838.4)
(296.65 89.9495 25929.8)
(356.516 -41.6653 26817.2)
(348.37 -222.18 30154.7)
(308.015 -350.027 32143.1)
(251.38 -348.56 29726.3)
(223.736 -145.484 22398.4)
(231.181 331.866 16816.3)
(349.297 247.793 17097.6)
(96.0256 365.388 19117.5)
(-155.585 446.813 20516.4)
(-401.523 471.378 22089.8)
(-515.743 486.718 23665.9)
(-509.127 431.378 24609.6)
(-353.528 389.019 24140.6)
(-179.998 246.963 24026.7)
(-175.282 -250.802 33319.3)
(-236.274 -421.938 40753.2)
(-177.622 -433.987 45421)
(-118.907 -401.953 48520.6)
(-53.6979 -354.289 50560.6)
(-5.9702 -294.913 51914.3)
(32.2907 -238.761 52736.1)
(50.5182 -179.4 53117.3)
(59.7382 -128.953 53046)
(46.708 -81.7985 52398.1)
(33.9059 -37.3572 50858.5)
(-19.4383 -0.311761 48540)