/*--------------------------------*- C++ -*----------------------------------*\
  =========                 |
  \\      /  F ield         | OpenFOAM: The Open Source CFD Toolbox
   \\    /   O peration     | Website:  https://openfoam.org
    \\  /    A nd           | Version:  11
     \\/     M anipulation  |
\*---------------------------------------------------------------------------*/
FoamFile
{
    format      ascii;
    class       volScalarField;
    location    "500";
    object      p;
}
// * * * * * * * * * * * * * * * * * * * * * * * * * * * * * * * * * * * * * //

dimensions      [0 2 -2 0 0 0 0];

internalField   nonuniform List<scalar> 
128000
(
-216484
-215253
-286857
-267329
-361943
-368107
-432187
-436923
-430638
-384914
-325569
-290398
-248768
-276864
-319773
-341064
-363057
-384555
-397768
-394604
-383629
-409471
-373739
-349372
-299292
-272899
-242640
-291807
-341210
-416255
-483733
-538021
-522683
-513416
-413518
-397869
-271837
-275788
-194962
-166661
-217663
-156111
-226037
-209203
-284378
-328354
-402135
-472503
-503822
-489485
-404542
-353576
-271916
-280653
-323541
-355774
-376720
-397067
-415673
-414750
-401320
-431223
-381890
-362940
-301771
-273260
-268273
-367780
-446092
-549769
-622713
-626322
-551290
-465950
-343143
-289945
-175062
-190992
-91675.1
-138398
-288025
-226892
-239860
-230787
-274790
-307405
-371634
-435056
-505586
-539202
-475502
-424439
-350408
-343808
-370775
-388145
-404394
-412881
-402080
-407909
-396030
-424086
-411531
-401743
-359038
-344328
-350265
-463944
-531001
-637851
-665414
-606351
-505460
-419609
-319764
-273440
-203300
-199133
-168068
-234610
-269454
-210554
-228441
-199853
-243517
-285788
-349588
-440460
-508586
-595028
-559188
-523033
-442875
-437893
-434913
-456164
-439094
-445319
-435653
-441956
-443999
-471380
-467129
-475623
-438867
-446629
-451459
-592304
-651162
-750052
-715663
-625660
-498685
-392279
-274901
-223649
-138295
-165383
-134113
-189757
-363152
-290098
-275903
-248194
-244509
-274046
-318966
-391010
-477650
-557702
-582823
-546730
-505858
-507761
-527178
-503252
-504214
-470787
-451014
-451784
-466300
-508350
-521911
-544254
-528190
-552809
-548143
-654261
-680152
-747329
-684568
-565815
-440766
-338072
-253430
-212531
-185748
-225514
-217762
-310124
-362771
-329193
-304115
-285941
-270399
-290601
-316355
-392918
-430622
-572360
-528711
-578458
-501994
-523634
-522701
-560836
-511022
-479527
-474775
-475192
-496212
-527028
-555738
-598190
-596951
-585662
-586739
-647934
-700220
-711057
-645783
-524630
-415064
-322271
-252083
-225929
-210146
-242547
-245280
-306473
-424332
-403067
-371904
-351596
-319946
-318902
-317341
-366354
-399535
-463056
-520823
-475469
-480515
-489080
-494205
-496812
-481471
-454080
-439220
-445537
-443086
-485998
-510808
-542236
-536605
-537796
-537085
-588625
-587380
-647617
-540836
-463284
-375134
-310611
-277264
-268302
-284915
-318844
-335998
-405945
-416931
-461777
-426023
-436585
-383546
-387192
-363133
-390845
-402425
-451381
-474043
-480645
-457704
-448031
-484571
-485476
-474646
-447441
-449451
-453552
-438713
-467061
-486459
-511661
-514948
-499045
-491478
-495482
-547499
-549160
-487838
-431157
-372685
-334686
-323785
-329060
-355378
-376347
-404522
-429765
-407314
-485762
-495620
-500052
-477922
-423723
-392172
-400450
-391548
-423176
-429959
-471294
-417868
-472002
-423977
-469836
-442687
-445152
-417058
-442055
-408008
-440974
-443971
-455952
-450047
-429358
-455918
-463244
-517946
-492725
-453300
-413393
-383544
-371000
-384711
-398370
-444014
-447888
-486592
-479051
-350512
-449839
-507570
-572956
-535845
-558521
-455373
-442449
-418388
-417762
-422236
-431148
-449540
-436485
-488844
-461231
-468174
-441626
-438909
-438644
-431983
-430130
-456165
-469271
-468787
-470184
-447866
-456802
-472951
-447536
-430708
-406458
-404665
-407379
-433269
-470036
-496092
-511616
-524430
-478293
-303876
-370856
-438692
-507656
-556044
-490543
-486464
-465814
-421623
-417243
-387060
-404964
-381202
-417868
-397999
-435085
-409084
-412950
-391879
-409984
-394725
-414865
-417105
-428202
-433386
-419410
-432895
-433721
-449446
-435162
-430773
-423365
-431262
-448858
-489787
-492374
-540854
-524953
-535260
-468661
-261514
-318972
-399325
-490661
-521027
-539292
-463231
-446451
-457321
-418332
-407683
-387480
-395666
-383870
-409393
-394579
-412209
-396304
-404958
-405817
-411500
-413616
-421225
-424928
-425428
-428976
-431841
-432045
-442824
-426970
-435250
-420605
-447714
-449213
-460952
-502116
-525750
-529339
-513116
-438903
-241982
-240765
-315933
-397216
-477463
-469411
-455434
-441487
-407859
-432838
-376242
-379824
-350372
-364810
-349573
-366706
-356240
-367375
-361672
-376380
-372370
-386150
-387941
-398309
-411230
-418193
-437869
-444551
-457337
-452709
-448141
-449019
-432549
-454827
-482324
-498839
-540058
-509482
-479445
-406933
-294378
-304899
-357261
-437786
-507094
-510232
-483697
-427245
-471582
-424074
-421416
-377227
-380178
-361482
-375761
-363430
-378051
-370421
-381560
-379387
-384874
-384709
-390169
-395731
-409006
-420438
-443729
-448728
-470227
-447703
-461643
-412050
-454757
-420959
-469583
-474763
-482976
-445455
-414120
-357148
-308607
-311594
-359819
-406847
-505650
-498255
-479698
-462522
-418131
-463169
-390596
-383254
-344624
-349205
-334276
-343311
-335043
-343072
-338953
-347722
-347652
-359915
-370840
-391113
-420412
-451061
-488553
-506865
-518290
-508414
-487904
-465970
-448871
-459522
-487492
-472695
-473728
-405556
-378786
-337340
-340767
-357412
-387511
-444136
-488045
-545869
-484690
-466915
-467131
-447571
-437697
-383498
-380513
-357715
-367586
-355738
-365476
-356133
-362906
-356096
-359815
-357811
-366940
-377884
-407053
-438438
-488252
-509596
-544684
-522630
-510835
-454577
-459250
-441449
-472420
-446987
-433710
-362691
-332708
-290686
-342191
-354542
-387661
-407880
-485861
-461265
-464249
-443703
-425440
-436593
-392669
-378702
-345765
-343659
-328522
-330659
-321392
-322059
-315482
-317332
-316960
-326325
-344768
-380675
-444215
-524478
-603674
-636636
-645598
-620654
-582311
-505811
-481866
-460112
-475340
-441713
-433581
-365360
-341691
-318140
-370806
-381044
-396437
-428514
-447064
-470940
-441272
-425482
-440210
-423532
-415096
-381887
-378973
-360076
-364430
-351180
-355267
-343529
-344420
-332521
-331963
-324032
-332351
-348550
-398656
-472862
-567832
-625612
-709280
-698683
-612217
-507342
-474448
-424772
-431371
-404037
-390643
-350653
-346085
-308675
-368408
-380967
-379612
-405169
-433657
-442782
-416234
-429971
-385942
-406318
-372725
-370509
-347127
-342479
-326110
-320474
-306488
-297992
-283563
-273225
-262261
-256759
-268046
-316744
-458165
-671694
-835087
-859119
-825854
-787327
-717104
-553436
-484470
-417343
-415964
-391665
-388815
-367656
-388329
-333823
-365018
-379531
-382883
-426036
-441762
-461840
-440618
-415055
-432931
-412625
-408988
-390352
-384382
-367934
-364026
-350480
-347867
-335214
-329812
-314316
-304101
-282090
-272864
-272980
-348742
-484936
-637032
-698002
-779684
-761159
-636043
-478172
-402439
-347696
-358637
-354024
-348431
-323015
-322484
-277567
-359254
-372734
-382873
-426683
-462729
-482911
-427426
-417923
-374135
-395203
-371055
-373078
-349328
-341321
-323119
-312882
-295494
-279297
-254346
-226316
-189228
-141360
-103325
-146430
-392460
-718288
-932150
-902461
-770648
-684659
-585755
-441998
-383227
-331783
-360378
-355026
-371647
-332058
-348291
-290025
-373265
-393012
-398661
-454275
-502788
-516677
-485254
-452431
-437644
-422679
-410931
-398508
-383255
-370686
-360715
-350919
-344086
-334107
-325308
-312403
-300817
-282538
-274333
-291710
-390521
-561912
-686317
-729835
-800576
-741067
-614775
-487227
-409795
-358088
-369151
-361459
-367963
-322341
-345450
-306045
-339026
-350268
-379230
-444297
-506721
-545827
-494782
-467226
-418780
-426586
-393280
-381107
-353630
-341455
-324809
-315727
-304043
-294206
-282938
-271920
-264218
-260411
-276755
-333951
-477731
-695763
-872726
-883579
-751101
-727551
-676672
-553121
-500488
-433708
-444438
-412401
-410263
-344097
-338333
-314904
-299479
-310037
-353362
-439163
-514277
-580574
-527241
-494860
-441760
-454000
-414793
-403714
-374363
-367742
-353448
-350535
-342397
-339236
-332541
-329425
-326179
-326502
-334836
-360375
-410889
-491362
-572426
-613409
-670820
-662625
-570998
-524729
-473773
-452351
-458334
-437429
-415184
-336998
-302729
-285239
-254047
-255953
-317682
-410806
-507024
-563385
-506776
-480830
-416163
-426829
-396077
-374003
-349106
-338012
-326153
-321047
-316110
-312830
-311559
-311235
-316739
-327110
-349500
-388774
-450768
-532304
-604080
-633686
-613742
-592870
-565978
-504429
-494504
-479070
-496782
-475178
-453881
-373397
-315346
-286077
-219728
-222318
-299051
-402702
-517810
-555435
-514188
-468675
-404124
-438937
-386285
-386929
-355800
-357150
-343241
-346908
-339907
-343037
-337828
-342216
-340492
-348491
-354796
-373385
-397967
-433985
-471862
-499011
-513831
-516716
-477818
-472803
-432524
-458816
-476770
-473225
-449312
-361406
-322850
-290702
-226839
-276189
-362267
-472042
-553137
-574436
-513464
-459271
-420106
-397754
-377988
-357167
-339545
-332041
-326893
-325624
-325880
-326124
-328328
-332984
-340838
-351647
-366716
-388078
-415050
-448360
-478547
-499506
-505574
-498639
-495615
-456905
-470517
-462285
-493390
-500807
-498766
-444562
-393126
-337509
-278747
-362373
-454473
-579195
-644806
-638935
-580608
-475844
-446755
-425160
-380862
-368210
-344437
-348680
-338756
-347287
-341483
-348353
-342262
-352035
-347488
-359812
-361731
-374581
-384867
-401503
-417480
-434598
-443175
-449992
-445739
-444675
-451145
-455409
-491535
-506439
-526340
-475251
-435668
-366663
-335310
-451877
-538843
-660481
-690388
-687540
-566078
-518944
-472350
-412592
-374251
-350612
-340881
-334648
-337991
-337971
-340346
-339742
-342080
-346862
-353426
-362823
-371744
-382121
-393083
-408506
-418038
-432265
-440194
-448522
-454480
-457688
-479885
-490841
-511626
-547483
-557934
-535707
-498299
-418219
-409226
-547116
-628114
-727112
-718019
-676847
-619100
-497674
-446816
-394510
-366196
-358746
-344559
-358412
-351761
-364681
-359555
-368290
-360515
-367252
-361061
-372837
-373306
-381911
-386059
-391016
-394472
-405505
-405107
-417841
-416049
-425755
-442260
-469365
-503196
-520788
-565682
-533363
-525067
-444933
-471819
-600477
-626837
-671640
-626766
-589731
-483966
-436321
-399348
-370689
-363863
-353756
-363762
-355509
-370584
-371533
-373847
-370538
-370621
-374582
-379074
-368518
-379788
-387749
-396356
-406076
-397466
-407610
-409974
-427017
-418013
-423651
-430330
-448939
-484039
-514466
-537500
-540763
-542656
-479445
-504175
-570907
-546875
-556760
-501576
-467191
-414753
-384178
-366514
-362389
-367328
-378956
-360783
-392195
-385375
-394372
-386960
-389956
-388020
-398022
-387304
-383193
-390559
-398512
-404383
-405869
-402870
-407573
-390855
-424732
-404588
-399026
-388162
-389692
-406985
-422749
-467661
-466494
-499388
-476878
-476304
-485906
-442273
-435349
-382197
-364141
-328394
-334018
-345005
-366033
-388425
-374349
-395856
-380832
-392599
-394405
-390083
-387690
-377049
-400737
-391428
-384389
-403801
-409873
-419201
-421966
-399672
-412873
-400263
-451467
-426163
-414634
-384489
-371351
-368890
-374160
-397659
-408926
-435064
-449592
-449243
-388764
-354192
-325556
-284472
-277449
-275317
-307285
-339604
-373850
-400848
-385123
-381418
-399466
-399548
-398457
-390031
-378636
-381211
-375921
-394356
-399615
-413781
-431293
-439812
-448492
-440621
-431586
-419892
-440302
-452923
-415649
-373062
-338782
-315852
-311192
-323325
-346615
-359543
-413394
-348161
-277241
-264878
-226825
-216615
-225589
-257132
-312090
-359002
-429605
-409034
-426258
-419750
-429862
-424816
-422604
-397417
-387711
-390365
-387441
-412787
-420819
-429703
-440691
-472158
-482070
-468855
-467378
-467990
-495918
-491975
-470332
-397753
-356238
-304268
-288015
-276324
-297471
-298035
-345400
-330443
-226594
-226083
-178673
-185026
-207497
-259917
-320158
-397892
-427572
-444593
-438143
-426729
-420811
-401782
-390484
-380496
-374833
-373164
-365446
-394702
-414977
-423380
-441646
-452315
-471000
-481811
-469508
-480121
-500583
-514442
-504274
-421188
-363429
-302549
-269380
-245137
-275225
-262102
-333453
-208648
-132904
-165563
-116971
-179705
-211670
-290394
-365022
-429399
-473533
-468663
-467649
-423905
-397872
-371018
-372869
-362383
-373534
-368389
-365625
-380005
-392352
-400038
-408930
-418238
-422749
-427876
-421480
-462292
-494676
-535544
-521948
-470637
-406358
-329339
-295133
-225572
-242042
-215562
-249369
-230006
-156193
-175231
-154760
-221029
-245351
-323504
-374021
-440982
-465291
-462845
-434276
-385265
-347959
-329273
-333382
-336339
-350583
-350296
-346605
-348633
-370880
-375995
-385052
-383621
-376981
-376847
-352772
-397147
-438078
-482048
-516615
-461995
-422719
-351253
-318929
-267359
-262147
-236217
-285748
-143080
-72052.8
-155084
-133248
-231887
-260284
-352478
-412694
-463850
-468171
-439958
-403185
-353934
-311322
-287624
-311930
-319935
-367545
-372950
-356134
-349061
-366106
-363913
-367523
-359839
-343562
-338145
-293856
-328646
-388462
-431879
-492497
-490994
-458842
-384852
-350184
-257279
-267238
-185601
-210658
-144098
-145003
-228837
-206348
-320368
-315469
-404984
-407563
-431029
-403222
-377150
-343649
-304856
-285764
-269813
-298275
-312825
-352491
-351094
-344660
-340526
-355493
-358322
-359159
-348897
-334816
-327595
-295382
-288585
-335058
-358462
-416126
-431752
-459630
-407624
-414362
-326999
-328836
-272782
-241654
-825523
-827949
-875021
-880736
-950762
-974375
-1.01894e+06
-1.01257e+06
-966726
-860288
-712696
-548534
-336422
-422539
-572526
-644135
-690744
-717623
-728264
-709970
-710574
-734800
-637667
-508747
-345607
-158149
-154337
-472466
-715466
-914388
-1.06475e+06
-1.16184e+06
-1.17757e+06
-1.16512e+06
-1.08705e+06
-1.0469e+06
-950954
-930707
-874008
-853515
-826564
-794132
-836086
-842928
-906832
-959640
-1.02855e+06
-1.08568e+06
-1.09338e+06
-1.0246e+06
-864330
-674352
-362577
-381419
-550129
-614608
-614703
-596755
-573117
-539255
-521415
-551563
-525212
-490809
-370868
-132049
-179393
-623040
-904385
-1.11755e+06
-1.25218e+06
-1.28655e+06
-1.23351e+06
-1.1534e+06
-1.04547e+06
-978498
-886755
-874018
-813717
-836580
-870383
-834118
-845703
-854851
-903061
-953485
-1.02427e+06
-1.09262e+06
-1.14965e+06
-1.13414e+06
-994698
-805974
-492497
-505032
-630218
-650164
-594307
-516132
-436573
-375960
-338817
-439456
-547575
-588067
-513901
-324377
-296090
-769417
-1.05127e+06
-1.25705e+06
-1.34061e+06
-1.30982e+06
-1.22136e+06
-1.13084e+06
-1.03094e+06
-966524
-898212
-877490
-853942
-892573
-873183
-838282
-850713
-846938
-891808
-945046
-1.01584e+06
-1.10117e+06
-1.17034e+06
-1.21149e+06
-1.1035e+06
-940210
-689090
-781177
-836227
-763261
-656573
-545457
-433512
-371457
-389007
-491196
-630183
-771262
-814122
-729144
-545121
-924684
-1.18759e+06
-1.36647e+06
-1.39172e+06
-1.32153e+06
-1.21225e+06
-1.11172e+06
-1.00503e+06
-941583
-869911
-869377
-848362
-882970
-938314
-900529
-896721
-890185
-904085
-943393
-996235
-1.06355e+06
-1.13221e+06
-1.19952e+06
-1.12562e+06
-987384
-856016
-994700
-1.05975e+06
-937769
-790926
-648177
-561434
-548846
-585304
-673990
-789850
-958175
-1.08343e+06
-1.08155e+06
-858415
-1.0105e+06
-1.21513e+06
-1.34343e+06
-1.35231e+06
-1.25736e+06
-1.16119e+06
-1.07446e+06
-996471
-947839
-913693
-923791
-915217
-966154
-952866
-945422
-939085
-934743
-934622
-959710
-991814
-1.0488e+06
-1.07119e+06
-1.14241e+06
-1.10368e+06
-1.01156e+06
-940415
-1.07028e+06
-1.10417e+06
-1.03626e+06
-877049
-747809
-681442
-666198
-691970
-791234
-930709
-1.1099e+06
-1.23127e+06
-1.24812e+06
-1.08739e+06
-1.04187e+06
-1.21408e+06
-1.3098e+06
-1.26089e+06
-1.19064e+06
-1.12644e+06
-1.0643e+06
-1.00876e+06
-977882
-955922
-963911
-957469
-986355
-989574
-1.00792e+06
-1.00496e+06
-998625
-980594
-982922
-989994
-1.02233e+06
-1.02897e+06
-1.02782e+06
-992054
-890419
-909802
-993338
-1.01388e+06
-949471
-838902
-721603
-660896
-657196
-674254
-792451
-920877
-1.06706e+06
-1.17327e+06
-1.21548e+06
-1.12979e+06
-1.0203e+06
-1.08602e+06
-1.14123e+06
-1.11901e+06
-1.11999e+06
-1.09803e+06
-1.07057e+06
-1.04761e+06
-1.03358e+06
-1.03304e+06
-1.04063e+06
-1.03558e+06
-1.05564e+06
-969489
-1.05091e+06
-1.06004e+06
-1.07084e+06
-1.03089e+06
-1.02097e+06
-1.00734e+06
-1.02183e+06
-1.01443e+06
-1.00107e+06
-937396
-844751
-781871
-809285
-850688
-822472
-752862
-659734
-610991
-632698
-631519
-706866
-810656
-920915
-1.00787e+06
-1.03871e+06
-1.00078e+06
-907408
-969959
-1.0264e+06
-1.06849e+06
-1.10528e+06
-1.11397e+06
-1.10899e+06
-1.10252e+06
-1.09781e+06
-1.10375e+06
-1.10111e+06
-1.09323e+06
-1.07203e+06
-915311
-1.04518e+06
-1.10635e+06
-1.12817e+06
-1.09151e+06
-1.02544e+06
-997320
-995998
-983166
-969513
-904943
-827071
-677993
-665688
-660079
-681960
-628946
-570852
-519894
-571235
-578637
-615452
-671285
-729681
-761054
-756254
-749862
-740207
-885804
-988659
-1.0703e+06
-1.12336e+06
-1.1474e+06
-1.15235e+06
-1.15514e+06
-1.15182e+06
-1.16897e+06
-1.15072e+06
-1.13745e+06
-1.07954e+06
-801971
-956505
-1.06687e+06
-1.14375e+06
-1.13499e+06
-1.07297e+06
-986726
-961582
-949486
-932605
-885762
-799599
-683910
-565239
-543693
-511718
-495838
-433623
-421895
-492347
-544851
-535962
-555963
-587182
-606066
-617387
-641682
-751548
-902037
-1.01063e+06
-1.09876e+06
-1.14851e+06
-1.17412e+06
-1.17242e+06
-1.16802e+06
-1.16803e+06
-1.1707e+06
-1.14984e+06
-1.12124e+06
-1.03275e+06
-668746
-799996
-921089
-1.01585e+06
-1.05446e+06
-993137
-931579
-882226
-867354
-864310
-830764
-781550
-654027
-531032
-384098
-317210
-260058
-237396
-279608
-415863
-464027
-458173
-435027
-459449
-503731
-570957
-687344
-816836
-955790
-1.05454e+06
-1.12976e+06
-1.1673e+06
-1.17421e+06
-1.15712e+06
-1.13179e+06
-1.10317e+06
-1.08288e+06
-1.06792e+06
-1.05554e+06
-955951
-514077
-610359
-735910
-863581
-922097
-937980
-841707
-759543
-773368
-757371
-766442
-748437
-690727
-576420
-445612
-277720
-179156
-158679
-270266
-401177
-442273
-422417
-418123
-465704
-551576
-658569
-775256
-890545
-1.00283e+06
-1.0767e+06
-1.13533e+06
-1.14268e+06
-1.12648e+06
-1.06436e+06
-959117
-961851
-950355
-958046
-947234
-844004
-387274
-370910
-489078
-699294
-884394
-945064
-890509
-741604
-634190
-632449
-621800
-665640
-641059
-594046
-489098
-374127
-255572
-239629
-310513
-404784
-423152
-420363
-440604
-518268
-616133
-720713
-833772
-935096
-1.02838e+06
-1.08901e+06
-1.11774e+06
-1.10342e+06
-1.0137e+06
-911821
-888982
-834054
-813558
-791425
-790053
-699790
-565721
-537063
-634584
-850486
-1.03241e+06
-1.07142e+06
-973458
-766099
-634521
-513248
-494692
-544881
-591245
-578682
-545030
-469600
-403257
-372197
-408170
-451235
-467902
-467229
-507431
-575886
-662341
-753770
-853981
-939484
-1.0244e+06
-1.06048e+06
-1.08058e+06
-1.00982e+06
-915344
-848037
-890387
-796495
-600830
-503055
-543084
-507990
-627819
-613889
-663271
-812649
-1.01398e+06
-1.05592e+06
-966402
-800198
-623128
-488840
-337065
-394599
-462681
-514409
-510713
-491369
-449634
-436289
-443093
-470214
-480835
-493185
-528941
-593383
-673392
-761999
-859642
-946572
-1.02147e+06
-1.05939e+06
-1.04627e+06
-972537
-822946
-836277
-926459
-873900
-644811
-320923
-241992
-285377
-673623
-638097
-646087
-728719
-871810
-977806
-895559
-771465
-645572
-467451
-281182
-233582
-350639
-438520
-495891
-500593
-500185
-486516
-494896
-501689
-504583
-498809
-519623
-557229
-617476
-693354
-797119
-893899
-992955
-1.02856e+06
-1.01288e+06
-907306
-763670
-768031
-886445
-872200
-688138
-331182
-106143
-18837.8
-674988
-593411
-552760
-582342
-717329
-794025
-782652
-695549
-584384
-440812
-217527
-130673
-221069
-353403
-427372
-467850
-473358
-473695
-470365
-471518
-464907
-456971
-462902
-489177
-545903
-642543
-779146
-906755
-1.00863e+06
-1.05122e+06
-1.00727e+06
-870000
-703880
-702532
-807234
-796589
-663840
-369591
-198425
-3736.26
-681317
-554973
-456319
-467554
-585396
-704942
-676394
-613454
-539136
-394519
-213712
-120205
-208734
-325568
-419687
-462857
-488492
-486676
-484264
-467984
-444837
-401705
-362442
-332100
-348600
-454843
-653491
-837168
-1.00981e+06
-1.06845e+06
-981727
-796402
-657832
-619818
-689884
-673913
-551163
-326708
-346720
-203537
-650253
-492846
-353152
-349843
-522306
-630017
-617698
-572725
-481649
-389269
-262217
-231804
-268197
-343383
-402229
-443284
-455044
-447392
-423501
-406651
-367139
-286282
-196856
-135763
-189290
-451632
-765493
-931819
-1.02242e+06
-1.04542e+06
-975587
-770895
-641875
-591895
-642177
-626853
-410675
-242148
-499979
-440110
-615635
-441064
-298463
-333351
-529930
-626807
-617928
-569617
-547363
-467092
-400813
-356559
-357411
-385079
-431730
-462712
-480614
-472091
-451315
-416709
-360989
-220179
-15202.3
181677
129404
-201118
-563324
-772648
-938003
-978322
-863820
-684967
-581482
-544112
-586178
-551918
-269779
-76635
-400744
-488774
-656949
-452041
-314198
-387055
-585029
-683700
-661169
-597507
-526593
-486466
-406729
-361720
-344442
-375235
-410236
-439454
-440788
-417844
-373091
-337979
-233919
54365.9
435363
541606
88946.4
-469624
-828827
-922349
-893356
-850872
-754051
-605068
-531342
-513464
-579782
-567540
-384766
-140025
-336406
-451621
-665131
-479721
-438474
-510983
-694126
-813550
-810679
-704272
-600957
-489543
-392715
-336711
-338778
-380038
-425989
-456148
-466807
-455085
-427470
-398399
-341124
-184671
41815.3
231950
138163
-230192
-566847
-763546
-906895
-864945
-739579
-590740
-506628
-511143
-603805
-638755
-525792
-269786
-328853
-430789
-521733
-436848
-512028
-665064
-844459
-984944
-947171
-810486
-649032
-510685
-368992
-323076
-342315
-395414
-436810
-461364
-461765
-448021
-424599
-409074
-377576
-299505
-207945
-143449
-199115
-470873
-800152
-960886
-904445
-876404
-818797
-653947
-579084
-613131
-747091
-781343
-666057
-360690
-316547
-319691
-314918
-343174
-486042
-772891
-1.00826e+06
-1.16283e+06
-1.09898e+06
-926391
-709586
-555404
-412158
-391800
-424713
-478014
-509436
-524875
-520577
-510647
-495897
-491184
-477652
-443360
-407058
-387000
-408444
-520427
-702104
-858469
-970674
-983819
-852370
-676495
-588353
-697934
-858510
-890827
-748504
-418190
-243012
-126906
-101545
-127534
-336885
-752782
-1.09387e+06
-1.24046e+06
-1.17443e+06
-993826
-723453
-562174
-454786
-466081
-502947
-537284
-549297
-547643
-534839
-521421
-514092
-519450
-521826
-520347
-529266
-560341
-620510
-721024
-845869
-950747
-996184
-999397
-928855
-740511
-648784
-788955
-957177
-973880
-771698
-375628
-142230
-77795.6
47939
74439.1
-103196
-522020
-946996
-1.16399e+06
-1.16693e+06
-1.00377e+06
-720029
-585644
-533345
-576932
-603327
-623910
-613269
-599595
-573926
-558702
-549271
-561648
-567027
-571365
-588560
-627593
-682617
-760068
-849314
-933388
-991175
-1.00868e+06
-945015
-824977
-669384
-813716
-930746
-887399
-637229
-278889
-192116
-246183
-164986
-233162
-334511
-523726
-765397
-967800
-1.03551e+06
-943632
-716296
-616624
-634189
-667088
-679420
-670574
-641828
-606305
-570214
-544379
-536890
-555661
-575526
-585926
-620038
-673572
-739967
-819802
-901297
-974985
-1.02575e+06
-1.04391e+06
-1.02037e+06
-909014
-762112
-819499
-863461
-770349
-609160
-500551
-508490
-472854
-492190
-660783
-809194
-963319
-1.04177e+06
-1.04477e+06
-998477
-884005
-759771
-744893
-754338
-771786
-753166
-724480
-669786
-618897
-560986
-523799
-496742
-529578
-558277
-574648
-606481
-660821
-722148
-796447
-872552
-948020
-1.00783e+06
-1.04877e+06
-1.05115e+06
-1.01071e+06
-907999
-850857
-860675
-835858
-820142
-779661
-746132
-649403
-730294
-931174
-1.07978e+06
-1.21374e+06
-1.23489e+06
-1.20635e+06
-1.08546e+06
-991752
-888039
-859524
-852081
-833713
-793139
-731740
-659555
-579334
-502525
-441668
-418238
-469193
-521121
-544113
-583761
-636635
-697851
-772321
-847752
-927852
-998321
-1.05716e+06
-1.09098e+06
-1.09266e+06
-1.05935e+06
-1.04182e+06
-975723
-982528
-987695
-972583
-924946
-805146
-920532
-1.1257e+06
-1.2581e+06
-1.3556e+06
-1.33481e+06
-1.29444e+06
-1.1468e+06
-1.03142e+06
-966996
-938346
-914008
-875053
-804375
-728983
-629287
-539740
-451696
-409086
-395267
-467874
-498654
-517596
-542524
-580312
-628797
-694962
-769382
-857019
-935984
-1.01637e+06
-1.06754e+06
-1.10101e+06
-1.10399e+06
-1.09902e+06
-1.12491e+06
-1.09765e+06
-1.11081e+06
-1.08121e+06
-1.03855e+06
-917562
-1.05683e+06
-1.23141e+06
-1.30644e+06
-1.35559e+06
-1.31138e+06
-1.23304e+06
-1.09709e+06
-1.04292e+06
-1.0038e+06
-974757
-938017
-869914
-788800
-684541
-592520
-506212
-456167
-431077
-450272
-501733
-521812
-517931
-535822
-552629
-580277
-622359
-671675
-763956
-859147
-965402
-1.03488e+06
-1.08965e+06
-1.11539e+06
-1.12399e+06
-1.14852e+06
-1.17085e+06
-1.18184e+06
-1.15639e+06
-1.11335e+06
-1.00746e+06
-1.12603e+06
-1.22939e+06
-1.2474e+06
-1.25626e+06
-1.2019e+06
-1.14474e+06
-1.07392e+06
-1.03926e+06
-1.01221e+06
-981422
-930318
-853021
-744577
-670394
-592021
-553465
-526239
-526488
-541719
-573706
-573116
-555530
-546469
-555183
-577467
-604200
-623942
-668385
-743438
-881401
-964773
-1.03346e+06
-1.06967e+06
-1.08665e+06
-1.10223e+06
-1.11421e+06
-1.14092e+06
-1.12663e+06
-1.1122e+06
-1.04653e+06
-1.12037e+06
-1.15713e+06
-1.14465e+06
-1.13747e+06
-1.09165e+06
-1.05917e+06
-1.01918e+06
-1.0101e+06
-996114
-966805
-909624
-799867
-728499
-680055
-648054
-616076
-592490
-586117
-587172
-622303
-589341
-556283
-558783
-578740
-622703
-668390
-690898
-715685
-684004
-816447
-906062
-984749
-1.0238e+06
-1.04488e+06
-1.05425e+06
-1.0596e+06
-1.0704e+06
-1.06787e+06
-1.06407e+06
-1.042e+06
-1.08639e+06
-1.06024e+06
-1.04214e+06
-1.02172e+06
-989911
-976610
-968625
-977883
-971624
-938694
-872697
-767987
-770320
-783498
-751747
-698210
-644522
-610935
-609379
-607237
-583232
-557831
-569052
-626786
-715452
-807983
-861547
-855414
-784329
-805480
-877140
-932481
-967930
-983153
-984318
-984952
-989175
-995952
-993580
-1.01098e+06
-998950
-951334
-940498
-915678
-908157
-914153
-933741
-957793
-957006
-942845
-871552
-806117
-833011
-880860
-852389
-777545
-679562
-614088
-597525
-589560
-583752
-570596
-590137
-668533
-806375
-926143
-983642
-949272
-838674
-871017
-937045
-966909
-961515
-961423
-941379
-932629
-922605
-930177
-926701
-952949
-951567
-881234
-875103
-848135
-857096
-879126
-918549
-953040
-980535
-959063
-876619
-797916
-765199
-842091
-823688
-728872
-624240
-546526
-491233
-471256
-494461
-498332
-551122
-655854
-785842
-940416
-1.00567e+06
-927017
-801853
-890750
-960155
-1.0011e+06
-975719
-952446
-917281
-893142
-872806
-884539
-877055
-920878
-854459
-798151
-809818
-786973
-832496
-867248
-928523
-978125
-1.00468e+06
-965661
-878563
-786443
-634230
-649599
-669483
-637529
-572297
-514438
-445243
-367074
-337141
-384495
-495897
-615114
-731501
-826585
-867609
-782278
-729341
-887255
-991053
-1.03648e+06
-1.01566e+06
-975387
-921631
-889473
-840657
-842619
-828435
-854820
-840981
-788230
-795873
-792050
-843864
-877886
-940665
-979134
-1.00318e+06
-959494
-876244
-745211
-528489
-399735
-444729
-494231
-500322
-470917
-411478
-345641
-329825
-416334
-520651
-616434
-693501
-729755
-706750
-589359
-633053
-821466
-941870
-1.02159e+06
-1.01043e+06
-982166
-928347
-894006
-852024
-840678
-825213
-858064
-779869
-735024
-777590
-775876
-844984
-878970
-945587
-983087
-991291
-940866
-846731
-712413
-508531
-272512
-270723
-382101
-453476
-525985
-520400
-437761
-420181
-500063
-575302
-641893
-681144
-684970
-634927
-494679
-556846
-740994
-862547
-966128
-1.00121e+06
-989406
-939490
-906096
-843120
-838750
-794080
-810557
-773128
-770017
-818221
-816513
-890154
-900274
-952168
-942293
-919641
-844583
-747093
-619008
-456253
-260191
-169033
-277808
-441638
-620710
-671358
-616972
-543515
-566663
-621726
-685130
-698915
-683206
-641769
-509618
-516717
-649268
-750423
-855123
-915943
-957539
-936838
-935121
-879910
-872878
-838550
-823244
-832082
-833837
-877576
-874801
-930944
-938866
-965431
-945491
-893600
-794656
-675289
-576701
-438311
-510736
-579132
-600124
-623582
-638108
-646837
-626600
-619156
-642515
-577479
-504262
-434259
-345712
-312523
-504028
-650376
-810826
-952504
-1.05628e+06
-1.08979e+06
-1.0989e+06
-1.04551e+06
-1.02665e+06
-949887
-942848
-892829
-874847
-831065
-798753
-837680
-837680
-889154
-926509
-977941
-1.01891e+06
-1.01642e+06
-949413
-810271
-692928
-475936
-493958
-570481
-587268
-586705
-579208
-570769
-549515
-535191
-555092
-516010
-492079
-447972
-343633
-366265
-652414
-825494
-1.00798e+06
-1.14156e+06
-1.18728e+06
-1.15326e+06
-1.09496e+06
-1.00994e+06
-963518
-889615
-887831
-833403
-857823
-871555
-835418
-843917
-845103
-880413
-914209
-964598
-1.01197e+06
-1.05211e+06
-1.03633e+06
-917489
-807558
-594686
-597242
-633071
-628160
-598312
-556022
-511568
-488282
-463313
-520620
-565513
-572799
-545365
-493736
-487903
-795828
-955693
-1.13082e+06
-1.2164e+06
-1.20083e+06
-1.13599e+06
-1.07015e+06
-995072
-951756
-900853
-891376
-872931
-913222
-865564
-832351
-840446
-829010
-861815
-900180
-953461
-1.01841e+06
-1.06983e+06
-1.10489e+06
-1.02367e+06
-931377
-745260
-782640
-770440
-713615
-650935
-586473
-516897
-482808
-495139
-562233
-639345
-716726
-743521
-756256
-677438
-956434
-1.10552e+06
-1.25069e+06
-1.27322e+06
-1.22e+06
-1.13287e+06
-1.05407e+06
-968808
-923687
-867950
-877399
-862232
-895695
-917149
-882166
-873359
-859923
-864581
-892255
-932213
-985706
-1.03828e+06
-1.10106e+06
-1.04958e+06
-967829
-854030
-910836
-921379
-837563
-750282
-653125
-591955
-584570
-612595
-683299
-757431
-859199
-929149
-971898
-884204
-1.03363e+06
-1.15676e+06
-1.24708e+06
-1.25539e+06
-1.17113e+06
-1.09241e+06
-1.02065e+06
-958099
-923746
-901667
-920045
-916343
-963505
-917083
-912295
-899733
-890174
-884135
-901760
-925833
-974545
-993221
-1.06323e+06
-1.04394e+06
-985526
-895536
-944744
-942324
-907058
-799259
-708867
-659334
-647890
-670708
-747051
-845038
-967182
-1.0377e+06
-1.06474e+06
-1.01362e+06
-1.04021e+06
-1.17699e+06
-1.23845e+06
-1.19236e+06
-1.12731e+06
-1.06729e+06
-1.01182e+06
-965640
-943864
-930068
-943840
-941373
-965238
-937953
-958737
-946560
-938066
-919016
-918809