/*--------------------------------*- C++ -*----------------------------------*\
  =========                 |
  \\      /  F ield         | OpenFOAM: The Open Source CFD Toolbox
   \\    /   O peration     | Website:  https://openfoam.org
    \\  /    A nd           | Version:  11
     \\/     M anipulation  |
\*---------------------------------------------------------------------------*/
FoamFile
{
    format      ascii;
    class       surfaceScalarField;
    location    "500";
    object      phi;
}
// * * * * * * * * * * * * * * * * * * * * * * * * * * * * * * * * * * * * * //

dimensions      [0 3 -1 0 0 0 0];

internalField   nonuniform List<scalar> 
376000
(
-0.00236573
4.30689e-05
2.12213
0.113735
-0.122665
5.26431
0.193777
-0.088177
7.83533
0.361421
-0.17934
10.8357
0.561037
-0.211476
13.9307
0.772276
-0.226006
16.884
0.969673
-0.21233
19.6246
1.0991
-0.146832
21.8928
1.11265
-0.0330214
23.4726
1.01111
0.0793598
24.5745
0.849952
0.13661
25.1402
0.573666
0.259554
25.4882
0.144876
0.480416
33.8683
-0.178401
0.338527
49.679
-0.235618
0.0507179
56.6543
-0.151462
-0.0943692
62.9922
0.0387154
-0.204394
67.6499
0.237257
-0.214572
68.8627
0.292771
-0.0746888
62.7228
0.0169533
0.255452
53.3971
-0.358956
0.347721
50.1153
-0.439445
0.0518385
59.3384
-0.309915
-0.141051
68.1024
-0.186948
-0.119906
68.4329
-0.188756
0.0199319
61.529
-0.411191
0.280454
51.7788
-0.789458
0.45038
36.2826
-1.11573
0.309188
27.8719
-1.32849
0.179971
27.6749
-1.46655
0.109348
27.4764
-1.50892
0.0181729
26.6132
-1.42031
-0.108504
25.2513
-1.22433
-0.213779
23.2341
-0.976911
-0.262649
20.6221
-0.713649
-0.279399
17.6284
-0.47996
-0.246966
14.4287
-0.268791
-0.224782
11.1934
-0.165891
-0.11289
7.96961
-0.0311725
-0.142417
5.2956
-0.0354719
2.43551
-0.117304
0.110926
5.25313
-0.123667
-0.127847
8.2449
-0.0405986
-0.184889
11.4517
0.0655338
-0.303799
15.1279
0.270114
-0.435644
19.023
0.511357
-0.489193
22.5493
0.793228
-0.516875
25.8568
1.06688
-0.443781
28.5572
1.23135
-0.223296
30.1904
1.18491
0.098544
30.8041
0.948675
0.340885
30.6818
0.550785
0.634271
29.9806
0.135546
0.961916
39.6639
-0.174363
0.683108
61.9621
-0.352151
0.226251
73.1735
-0.407111
-0.0427138
79.2394
-0.378429
-0.230458
83.4259
-0.325629
-0.259442
85.766
-0.217112
-0.168524
82.6838
-0.0479476
0.110163
65.8475
0.192142
0.133965
60.9551
0.350654
-0.0849343
78.6312
0.329166
-0.106647
84.4483
0.219655
-0.00354815
84.2564
0.00691329
0.237789
79.9879
-0.283033
0.642157
68.4269
-0.705574
0.969667
44.5162
-1.19239
0.77381
32.9785
-1.51844
0.466654
33.8487
-1.65351
0.212462
34.3853
-1.58128
-0.0804793
33.9376
-1.32956
-0.382952
32.658
-1.00593
-0.560052
30.4146
-0.675509
-0.615965
27.382
-0.384755
-0.594052
23.8054
-0.139707
-0.513758
19.9316
0.00052074
-0.386555
15.9081
0.103642
-0.232485
11.7961
0.123982
-0.177136
8.45624
0.079706
5.324
-0.0822492
0.18511
7.79679
-0.175249
-0.0484384
11.4337
-0.181337
-0.196216
15.3231
-0.138969
-0.367869
19.4224
-0.05211
-0.546538
23.6616
0.101634
-0.66989
27.759
0.318825
-0.762183
31.5414
0.596835
-0.750949
34.5175
0.874053
-0.533139
35.755
0.969425
-0.0299816
35.2023
0.827319
0.447815
34.1941
0.522713
0.919905
33.225
0.151675
1.40447
44.5531
-0.208109
1.0736
68.9137
-0.423876
0.44044
78.5868
-0.480251
0.0111752
82.8337
-0.48051
-0.218986
86.5623
-0.411277
-0.306522
92.6086
-0.308505
-0.243952
99.3872
0.0191214
-0.178509
101.303
0.434244
-0.22875
96.4062
0.568848
-0.186461
98.0716
0.513178
-0.0419083
96.9551
0.346211
0.164371
94.0277
0.0991239
0.488705
88.8406
-0.186238
0.979545
78.6427
-0.563915
1.46448
53.1527
-0.986353
1.1889
36.6443
-1.22983
0.670225
37.2992
-1.26799
0.21787
38.5465
-1.092
-0.28422
38.7936
-0.780222
-0.721592
38.2794
-0.482833
-0.88506
36.3729
-0.227642
-0.899467
33.2502
-0.0386924
-0.811486
29.2888
0.0771034
-0.65618
24.829
0.142838
-0.477108
20.3094
0.156806
-0.267272
15.8992
0.0766503
-0.114108
11.7872
0.145435
7.81393
-0.172918
0.346458
10.7812
-0.296196
0.0565751
15.0825
-0.355845
-0.158337
19.4079
-0.366166
-0.38452
23.9189
-0.312508
-0.629173
28.5188
-0.218206
-0.795012
32.9314
-0.0756863
-0.936397
37.021
0.115121
-0.972076
40.2792
0.403231
-0.854019
41.4898
0.625215
-0.287657
38.586
0.59463
0.447951
36.5425
0.423164
1.08671
36.0545
0.228149
1.65947
48.5678
-0.097756
1.393
67.9074
-0.446598
0.766963
72.7075
-0.590521
0.158702
72.5596
-0.554483
-0.241617
73.5804
-0.455662
-0.374781
77.5528
-0.327441
-0.325978
82.9845
-0.0210641
-0.423356
82.7752
0.335874
-0.522292
73.6198
0.503621
-0.303429
76.5737
0.555211
-0.0703906
78.9042
0.489577
0.225526
80.5143
0.261318
0.692681
81.6288
-0.0391111
1.27386
79.9812
-0.30109
1.82571
61.4161
-0.593781
1.50669
40.3582
-0.792523
0.839926
39.1766
-0.772667
0.172243
40.6707
-0.531453
-0.552435
41.916
-0.250469
-1.02778
43.3321
-0.0330843
-1.13142
41.9142
0.149362
-1.11368
38.7952
0.264918
-0.960437
34.5265
0.343547
-0.76672
29.853
0.357298
-0.522318
24.9954
0.296391
-0.232625
20.1899
0.184345
-0.0246036
15.546
0.31379
10.9568
-0.199978
0.534833
13.8364
-0.418665
0.256014
18.9306
-0.525394
-0.0754979
23.5763
-0.602895
-0.335702
28.455
-0.617914
-0.646172
33.4111
-0.579405
-0.867126
38.2165
-0.496424
-1.0537
42.5995
-0.382317
-1.11947
45.9644
-0.179999
-1.08583
47.5921
0.172884
-0.684312
44.244
0.340441
0.262516
38.0899
0.339199
1.09578
38.8516
0.390142
1.6447
51.3841
0.292025
1.45987
64.7695
0.00928441
1.00203
66.9325
-0.321072
0.466198
60.6079
-0.521205
-0.0294727
64.2064
-0.513221
-0.353789
64.2382
-0.359572
-0.444237
65.4485
-0.0977912
-0.654092
63.4954
0.152871
-0.744751
59.872
0.309082
-0.428767
59.8236
0.36792
-0.10876
62.2807
0.285744
0.297515
66.6884
0.0709558
0.860123
72.1199
-0.13075
1.43097
76.5717
-0.180803
1.92187
66.0946
-0.271061
1.64884
44.975
-0.342646
0.898411
40.1657
-0.136639
-0.0439655
40.3124
0.15753
-0.873618
45.6637
0.337122
-1.23325
48.4283
0.475089
-1.30143
47.3692
0.56725
-1.2412
44.2812
0.612388
-1.04232
39.8766
0.609399
-0.799424
34.8622
0.527714
-0.474288
29.6287
0.429355
-0.162671
24.4413
0.223304
0.156624
19.5401
0.520685
14.1405
-0.212043
0.732279
16.7254
-0.464706
0.487105
22.3493
-0.639595
0.0726504
27.5365
-0.760119
-0.245641
32.7504
-0.828495
-0.611258
38.0886
-0.843616
-0.886376
43.3991
-0.825682
-1.10647
48.3417
-0.756827
-1.22039
52.274
-0.675084
-1.19653
54.2886
-0.350966
-1.02382
53.1854
0.0923221
-0.228763
40.7178
0.280833
0.920839
41.7117
0.490629
1.43513
52.3716
0.635559
1.26632
60.9693
0.639789
0.940494
62.3586
0.522262
0.552933
59.2784
0.189225
0.293444
56.0304
-0.185675
0.0264804
57.7242
-0.303957
-0.31339
61.8387
-0.278734
-0.666211
62.6409
-0.323754
-0.677719
59.7043
-0.386219
-0.354593
56.5515
-0.424132
-0.078062
57.9444
-0.453989
0.294766
62.6469
-0.427903
0.779774
68.4332
-0.33599
1.27386
72.166
-0.114412
1.68817
67.1188
0.0333669
1.55231
50.2573
0.18621
0.745639
41.9465
0.507476
-0.397729
43.2091
0.715847
-1.0954
51.8285
0.805132
-1.34699
54.4154
0.865958
-1.39444
53.4564
0.879601
-1.29181
50.0663
0.855328
-1.0571
45.191
0.783285
-0.765789
39.6563
0.664016
-0.391751
33.9898
0.499859
-0.0306887
28.4417
0.25307
0.375214
23.0369
0.753254
17.146
-0.191837
0.909502
19.3757
-0.486733
0.759984
25.5645
-0.727676
0.286156
31.2265
-0.893445
-0.110712
36.6866
-1.01024
-0.527814
42.296
-1.06245
-0.868134
48.1631
-1.08131
-1.12249
53.9189
-1.06306
-1.27147
58.8756
-1.00349
-1.28589
62.2196
-0.881949
-1.16572
63.2244
-0.336516
-0.772521
60.8777
0.333257
0.259527
44.576
0.667712
1.0828
51.8531
0.884628
1.00194
56.9424
0.963749
0.812697
58.2766
0.895319
0.590516
57.3974
0.693573
0.483574
56.3657
0.20238
0.525826
56.977
-0.263974
0.165571
63.2762
-0.45464
-0.461786
66.215
-0.694824
-0.421097
61.6583
-0.969818
-0.083158
56.9841
-1.07386
0.00451191
57.9997
-0.998038
0.178321
60.6059
-0.821315
0.539861
64.0857
-0.552264
0.928475
66.5285
-0.188909
1.26938
64.376
0.176517
1.2064
53.6925
0.660805
0.254357
44.5535
1.03424
-0.75881
56.1172
1.15254
-1.22298
61.4045
1.1986
-1.41748
62.5056
1.19206
-1.42191
60.4109
1.14514
-1.28395
56.0403
1.0637
-1.01624
50.2921
0.944525
-0.686751
44.0464
0.77063
-0.255724
37.9775
0.551059
0.154939
32.2075
0.257648
0.639482
26.3576
0.990954
19.9712
-0.117347
1.00952
21.4993
-0.394371
1.01409
28.0926
-0.70048
0.563781
34.0101
-0.917071
0.0771226
39.7497
-1.05505
-0.421445
45.3904
-1.15371
-0.79972
51.8428
-1.21063
-1.09743
58.6426
-1.23003
-1.28244
64.9142
-1.20154
-1.3428
69.7869
-1.13283
-1.25542
72.446
-0.89934
-1.01468
72.029
-0.107806
-0.524554
67.1582
0.674115
0.312318
54.8344
0.966955
0.699231
57.0184
1.06816
0.699885
58.0483
0.944494
0.70783
58.1859
0.690033
0.740776
58.1674
0.387968
0.844292
59.4401
0.0275841
0.555357
66.0735
-0.279967
-0.137827
71.9644
-0.468227
-0.209505
68.8952
-0.734929
0.202756
61.62
-1.01944
0.290019
59.5698
-1.14031
0.284742
59.8477
-1.05257
0.416726
60.8474
-0.759452
0.583087
61.6833
-0.295105
0.754757
60.6733
0.450104
0.458294
55.3696
1.11908
-0.406173
61.7631
1.37659
-1.01448
69.4049
1.4384
-1.29965
72.1288
1.41898
-1.42583
71.2002
1.35192
-1.39107
67.4212
1.24873
-1.22125
61.5771
1.11747
-0.926536
54.5629
0.949568
-0.559966
47.3909
0.758406
-0.103778
40.8943
0.523293
0.35356
34.7714
0.235143
0.896931
28.9261
1.20396
22.4154
0.000346317
0.990518
22.9373
-0.145489
1.13448
29.4294
-0.427633
0.813928
34.7351
-0.757571
0.374853
40.352
-1.01494
-0.189872
46.6907
-1.125
-0.714426
53.5833
-1.21873
-1.0315
61.7354
-1.28551
-1.24267
69.5816
-1.30336
-1.35263
76.3272
-1.2713
-1.31104
81.1571
-1.18022
-1.12193
83.1705
-0.885169
-0.820481
81.9447
-0.166375
-0.385674
76.2828
0.416801
0.154188
65.0515
0.609549
0.518424
62.9257
0.614013
0.715455
61.923
0.449774
0.919557
61.4884
0.331337
0.992567
63.2032
0.289105
0.633056
70.4006
0.034109
0.14066
76.4003
-0.166554
0.00683214
77.2621
-0.266439
0.330592
71.2268
-0.446538
0.488034
66.2631
-0.568578
0.418994
65.7534
-0.51368
0.369932
65.519
-0.242465
0.318298
65.5425
0.376235
0.156357
65.9988
1.14362
-0.273272
73.1367
1.51853
-0.767616
80.8347
1.60374
-1.10721
83.5433
1.58168
-1.30034
82.8959
1.49861
-1.37608
79.4039
1.38241
-1.3142
73.5565
1.23145
-1.11199
65.8894
1.05858
-0.795448
57.2846
0.87236
-0.414928
49.02
0.649654
0.0782511
42.1451
0.420298
0.542986
35.8525
0.18411
1.1022
30.5915
1.366
24.3954
0.102599
0.865971
23.9432
0.173905
1.03582
29.8513
0.0981121
0.857563
33.9337
-0.121609
0.564147
36.8035
-0.527929
0.172622
41.8401
-0.909623
-0.339784
52.0756
-1.0787
-0.881404
62.438
-1.18278
-1.15667
72.0318
-1.24785
-1.30984
80.9596
-1.26336
-1.31759
88.3289
-1.23907
-1.16375
93.1042
-1.15231
-0.913657
94.7244
-0.933673
-0.591764
92.8114
-0.492313
-0.251992
86.4683
-0.103019
0.181718
75.639
0.101237
0.557809
70.2811
0.184251
0.88082
67.5695
0.30623
0.926634
70.3698
0.419395
0.577645
79.3639
0.32136
0.27386
86.1189
0.149894
0.195519
88.6247
0.133532
0.376666
84.8982
0.21985
0.443009
79.7747
0.31754
0.36241
79.6738
0.499858
0.229046
80.8647
0.838133
0.0261105
83.4588
1.27878
-0.246747
90.3542
1.5641
-0.544888
95.0539
1.64996
-0.857591
96.641
1.62278
-1.09942
95.5676
1.5296
-1.23733
91.9878
1.39712
-1.28149
86.071
1.23414
-1.19234
78.0731
1.03321
-0.952629
68.2409
0.807691
-0.611122
57.6092
0.534408
-0.179729
47.8612
0.369608
0.196837
39.065
0.26911
0.605245
34.6232
0.117331
1.22419
31.3526
1.46008
25.8814
0.148464
0.694272
24.391
0.393705
0.759521
29.5218
0.544023
0.674022
32.7644
0.586812
0.493967
34.9887
0.447166
0.298092
36.7917
-0.0511109
0.136887
37.9387
-0.658982
-0.277818
60.0077
-0.936833
-0.881288
71.4252
-1.06266
-1.19767
82.84
-1.11331
-1.28297
92.933
-1.12793
-1.16797
100.694
-1.11202
-0.941976
105.52
-1.0423
-0.661159
107.191
-0.908902
-0.359918
105.153
-0.630408
-0.0427132
97.9787
-0.314856
0.320096
89.4124
-0.020289
0.670252
82.9397
0.275256
0.720403
86.4793
0.42487
0.495257
95.7013
0.404424
0.327305
98.6421
0.370819
0.250265
99.5071
0.436899
0.344258
99.2821
0.621558
0.306186
99.1183
0.834093
0.198222
100.534
1.07845
0.02879
103.18
1.31926
-0.18588
108.283
1.47774
-0.393883
110.711
1.56358
-0.63511
110.832
1.55805
-0.868477
108.926
1.47934
-1.04778
104.96
1.34668
-1.13907
98.96
1.17695
-1.1511
90.8868
0.971943
-1.02761
80.7185
0.672608
-0.692316
68.1713
0.26148
-0.235548
54.9686
0.0616565
-0.0213976
39.8638
0.112419
0.130732
35.512
0.117041
0.572164
33.2181
0.059185
1.25513
31.7293
1.49551
26.9324
0.330976
0.357618
25.5096
0.739275
0.344657
29.6676
1.06186
0.353181
33.0851
1.24295
0.328286
36.3396
1.24937
0.313817
39.6
1.07561
0.328058
42.4178
0.392873
0.414969
45.2218
-0.422398
-0.0463554
65.8396
-0.744504
-0.873216
81.534
-0.848867
-1.18214
94.4153
-0.884716
-1.14281
105.401
-0.89538
-0.945463
113.284
-0.87532
-0.68929
118.331
-0.809205
-0.423321
120.753
-0.685695
-0.14162
120.242
-0.453996
0.145059
114.716
-0.114981
0.416814
109.039
0.197351
0.492369
110.72
0.352913
0.393991
115.389
0.391559
0.315671
113.38
0.433028
0.234479
113.902
0.565949
0.247134
115.908
0.752276
0.16127
119.145
0.945171
0.040293
121.715
1.12063
-0.125726
124.731
1.25023
-0.307783
125.872
1.35009
-0.49787
124.975
1.39206
-0.691415
122.334
1.35608
-0.854981
118.027
1.25371
-0.975785
111.96
1.08363
-1.00427
104.075
0.876239
-0.982926
94.1022
0.56042
-0.748577
81.6119
-0.0230687
-0.149788
64.9054
-0.374631
0.119713
45.5459
-0.328731
-0.0653463
41.1572
-0.207003
0.0137362
36.3795
-0.0931079
0.443424
32.6183
-0.0171831
1.15183
31.7393
1.45427
27.5542
0.48933
-0.0893894
40.0289
0.946752
-0.053035
46.9504
1.38173
-0.0196403
51.7402
1.6391
0.104583
54.0819
1.6082
0.351407
54.8759
1.39548
0.517593
53.907
1.05769
0.724339
52.2772
0.319209
0.703943
55.3132
-0.346038
-0.183443
75.9803
-0.549603
-0.961955
92.4473
-0.621696
-1.06791
107.008
-0.653745
-0.920977
118.189
-0.661457
-0.691252
125.759
-0.640841
-0.447697
130.859
-0.566369
-0.21064
133.678
-0.419754
0.0217341
133.535
-0.174582
0.214857
131.895
0.0672169
0.297678
132.269
0.229462
0.263898
132.419
0.332962
0.232484
127.652
0.438056
0.15052
128.479
0.59145
0.121553
132.018
0.765195
0.0138072
135.9
0.930679
-0.109412
138.412
1.06843
-0.256778
139.237
1.18087
-0.4226
138.024
1.2464
-0.572879
135.191
1.25383
-0.715461
130.796
1.18704
-0.810734
124.877
1.04339
-0.860707
117.302
0.821314
-0.815265
107.97
0.539801
-0.735913
96.3893
0.00765974
-0.248094
80.97
-0.52501
0.384828
56.5298
-0.707677
0.309701
53.1569
-0.74272
0.00535927
50.491
-0.636278
-0.0523568
43.176
-0.375993
0.197071
34.1832
-0.0966017
0.847838
31.1363
1.33406
27.7461
0.229138
-0.329903
51.292
0.51078
-0.332365
64.9198
0.846397
-0.356976
71.5233
1.1842
-0.257483
69.3834
1.30557
0.186978
65.164
1.14914
0.618981
60.6416
0.929636
0.897613
56.4452
0.673745
0.952987
57.062
0.174957
0.35552
65.5187
-0.205721
-0.539647
85.9801
-0.30905
-0.934409
104.938
-0.370668
-0.854247
120.482
-0.396544
-0.66728
130.799
-0.396584
-0.450543
137.979
-0.356789
-0.248591
143.077
-0.265568
-0.0617126
146.012
-0.114855
0.0831142
146.994
0.0439526
0.161325
147.447
0.176612
0.150955
146.391
0.286123
0.137733
141.28
0.389553
0.0624978
142.156
0.518615
0.010749
146.07
0.652596
-0.107196
149.702
0.784286
-0.234653
150.747
0.911379
-0.383516
149.674
1.01344
-0.53007
146.911
1.08293
-0.652565
142.694
1.08904
-0.737307
136.996
1.01934
-0.761312
129.904
0.846196
-0.714201
121.281
0.604562
-0.602839
111.036
0.245017
-0.408207
98.229
-0.203149
0.192516
77.348
-0.512148
0.685021
60.4259
-0.754115
0.532501
61.2983
-0.904394
0.166594
64.4908
-0.864448
-0.0136144
60.2893
-0.611572
0.0354933
46.4906
-0.198544
0.454787
32.5038
1.11486
27.4831
-0.00388891
-0.336801
57.5925
0.131751
-0.477792
73.9898
0.29798
-0.527123
79.0831
0.602557
-0.580124
72.1878
0.86708
-0.11779
65.3421
0.847885
0.585342
61.0772
0.764419
0.938744
57.4722
0.684876
1.02482
57.9145
0.516543
0.538525
63.1317
0.197984
-0.166247
75.926
-0.0121103
-0.664898
97.8941
-0.113312
-0.726481
119.874
-0.186083
-0.587494
133.52
-0.225522
-0.409468
142.881
-0.229873
-0.243321
149.533
-0.193689
-0.0938499
154.13
-0.11009
0.00754436
156.615
-0.00748779
0.0694551
157.609
0.0962372
0.0573383
156.481
0.205144
0.0373387
151.646
0.31594
-0.0406095
152.584
0.444419
-0.108715
156.701
0.576965
-0.232759
159.189
0.715653
-0.370265
158.926
0.850212
-0.518054
156.813
0.968966
-0.65172
153.043
1.04398
-0.732797
147.859
1.05334
-0.755831
141.225
0.968624
-0.690516
133.424
0.777114
-0.542403
124.405
0.469298
-0.318416
113.962
0.0711295
-0.0316728
100.714
-0.205619
0.479433
79.1506
-0.402285
0.879839
63.6354
-0.601139
0.698989
65.3726
-0.706234
0.241836
72.499
-0.731086
0.0279963
77.3497
-0.611857
0.000147876
71.2321
-0.279302
0.232491
49.3852
0.862588
29.0757
-0.127394
-0.223477
63.3429
-0.104362
-0.505166
79.5988
-0.066545
-0.565307
82.9727
0.0505593
-0.692399
72.9906
0.363689
-0.441892
61.0167
0.503958
0.420459
58.6974
0.576708
0.841952
56.9777
0.728399
0.870529
58.1598
0.743315
0.53974
62.1207
0.590386
0.035862
70.6755
0.365932
-0.358156
89.7328
0.196653
-0.496728
114.414
0.0802596
-0.443459
133.204
0.00119735
-0.31937
145.467
-0.0341624
-0.201868
154.102
-0.031104
-0.0917099
159.827
0.00477057
-0.021968
163.574
0.0578008
0.023706
165.074
0.115385
0.00692598
164.337
0.179959
-0.0220762
160.12
0.246145
-0.101023
160.793
0.327158
-0.182328
164.536
0.422676
-0.322059
165.952
0.538791
-0.482128
164.683
0.683068
-0.658917
161.489
0.836847
-0.802775
156.543
0.966746
-0.860692
150.185
1.02214
-0.813815
142.589
0.965177
-0.64142
134.427
0.766527
-0.359496
125.66
0.452834
-0.023108
115.909
0.0791783
0.324381
103.359
-0.150348
0.726722
83.7734
-0.250686
0.989474
66.6247
-0.362766
0.784383
66.4766
-0.414389
0.256626
74.5501
-0.405449
0.00555683
85.3703
-0.305923
-0.0706508
89.2976
-0.202906
0.205146
71.1581
0.768907
40.3501
-0.208095
-0.0313121
67.2498
-0.246173
-0.465552
83.7044
-0.240901
-0.5576
87.2526
-0.276735
-0.637018
74.2176
-0.0728781
-0.624165
64.5366
0.310344
0.030407
55.6985
0.526613
0.619191
56.3576
0.766659
0.634868
58.2923
0.934298
0.388965
61.7411
0.881039
0.135571
67.9937
0.67105
-0.0628304
83.8647
0.424366
-0.166343
109.446
0.230001
-0.20512
131.777
0.0935724
-0.163812
146.578
0.00959413
-0.109201
156.453
-0.03404
-0.0428439
163.309
-0.0437534
-0.00776701
167.606
-0.0292342
0.014084
169.477
-0.0011683
-0.0167458
168.736
0.0449343
-0.063838
164.44
0.102937
-0.154618
165.187
0.189085
-0.262464
169.04
0.306405
-0.432519
169.601
0.468151
-0.635172
167.355
0.670787
-0.848347
163.096
0.874999
-0.988351
156.834
1.00872
-0.974791
149.19
1.03465
-0.826834
140.84
0.954391
-0.55713
132.804
0.744781
-0.156334
125.117
0.40477
0.308325
117.057
0.0259259
0.69711
106.234
-0.15742
0.940676
88.3459
-0.186419
1.04353
70.5371
-0.188579
0.777691
67.7087
-0.202384
0.250737
76.4582
-0.195816
-0.010072
90.9557
-0.0868131
-0.167713
99.1981
-0.0283436
0.173689
81.3913
0.839989
54.9203
-0.192186
0.144012
67.244
-0.25208
-0.397434
85.9545
-0.29849
-0.486233
92.8234
-0.370092
-0.525342
77.0597
-0.401036
-0.5611
63.5119
-0.0194324
-0.344931
59.3722
0.553923
0.0575757
57.4012
0.877057
0.329429
59.8762
1.01707
0.281395
63.7879
0.955619
0.254408
71.1821
0.768596
0.215289
87.0878
0.557697
0.130777
110.376
0.380429
0.0247391
131.56
0.250072
-0.00704189
146.63
0.16161
-0.00594595
157.244
0.107668
0.0201217
164.708
0.0790543
0.0278418
169.632
0.0679211
0.0309448
171.968
0.0633586
-0.00666768
171.481
0.0613874
-0.0565099
167.378
0.058471
-0.144515
167.617
0.0691291
-0.263939
171.193
0.106848
-0.457288
171.055
0.208329
-0.717521
167.584
0.403289
-1.01308
161.455
0.619335
-1.16594
152.712
0.752705
-1.07488
143.151
0.777559
-0.830029
134.237
0.722485
-0.488321
126.793
0.499243
0.0687667
120.602
0.117387
0.686811
114.178
-0.208348
1.0314
105.04
-0.299542
1.06139
89.7137
-0.20334
0.975843
74.414
-0.075102
0.655848
69.8638
-0.0500915
0.224592
79.1308
-0.0308306
-0.0277649
96.0396
0.0187528
-0.195703
102.552
0.00811755
0.188338
79.8053
0.890839
60.9651
-0.0383177
0.166585
58.4686
-0.1664
-0.252162
83.6015
-0.266859
-0.351553
97.9043
-0.394106
-0.340592
79.1224
-0.565759
-0.356373
63.2325
-0.512856
-0.385786
61.8835
-0.00264556
-0.440797
64.4226
0.452191
-0.0972759
68.3347
0.551292
0.213598
72.322
0.554479
0.302589
81.3371
0.503466
0.326358
96.6966
0.415561
0.268905
114.991
0.292944
0.180729
131.655
0.174278
0.132183
145.477
0.0736949
0.106022
156.048
-0.00393502
0.104353
163.805
-0.0663223
0.0942842
168.822
-0.11563
0.084785
170.979
-0.162333
0.0459968
169.743
-0.206235
-0.00894925
165.4
-0.239269
-0.10781
166.364
-0.227781
-0.265746
169.734
-0.144419
-0.523693
168.381
0.0361289
-0.867028
163.56
0.230036
-1.14655
155.142
0.249907
-1.11431
143.964
0.00776299
-0.773989
133.941
-0.384069
-0.390558
125.872
-0.745461
-0.094535
119.535
-0.953737
0.302163
114.07
-0.972689
0.724141
108.607
-0.855681
0.934057
100.376
-0.632896
0.86649
88.6974
-0.350161
0.716157
77.6976
-0.171208
0.481409
74.8963
-0.234013
0.278347
89.9152
-0.327738
0.0924264
104.833
-0.397771
-0.0713196
87.1081
-0.332358
0.098482
61.1985
0.554667
60.0391
0.22519
-0.0686457
49.2574
0.0691588
-0.0639281
69.0944
-0.258287
0.0214485
98.9983
-0.529673
-0.00337856
76.2407
-0.74041
-0.11741
61.4166
-0.718444
-0.387147
61.669
-0.490319
-0.645523
64.5807
-0.147027
-0.417796
70.7255
0.149651
-0.0625705
77.2105
0.323021
0.156877
86.4477
0.411634
0.268256
97.7874
0.41741
0.292433
111.407
0.358267
0.267283
125.83
0.272826
0.238865
139.49
0.187992
0.205386
150.829
0.11942
0.181883
159.323
0.066887
0.153152
164.892
0.0272405
0.12946
167.45
-0.0120514
0.0910383
166.45
-0.0585436
0.043969
161.22
-0.129428
-0.0311532
161.774
-0.244019
-0.1392
166.306
-0.443866
-0.291573
164.864
-0.765137
-0.471822
157.166
-1.24104
-0.565762
143.597
-1.81177
-0.456081
129.619
-2.31693
-0.206155
120.23
-2.66375
0.00430964
114.076
-2.80865
0.0890639
109.279
-2.6487
0.167818
105.33
-2.2082
0.301918
101.052
-1.66116
0.40055
95.232
-1.12539
0.343384
88.6925
-0.654491
0.25237
84.484
-0.39721
0.221894
87.5175
-0.391587
0.268106
100.935
-0.48477
0.231453
107.729
-0.606461
0.144816
85.3482
-0.597289
0.089401
54.347
-0.0780425
52.0126
0.312909
-0.414801
49.7506
0.148702
0.129533
63.3391
-0.197265
0.417535
95.5663
-0.473704
0.33089
72.0164
-0.665902
0.103771
58.6407
-0.570133
-0.462344
57.9813
-0.293223
-0.909843
58.9991
-0.0405983
-0.64359
64.7924
0.176333
-0.259692
75.1755
0.303115
0.0498296
85.9415
0.341115
0.254724
97.2377
0.316027
0.347338
111.536
0.238654
0.371088
126.673
0.146286
0.350227
140.526
0.0496181
0.313373
151.649
-0.0394729
0.277122
159.913
-0.127781
0.245537
165.209
-0.221151
0.228194
167.181
-0.349839
0.227524
165.359
-0.554611
0.249731
161.212
-0.870819
0.286478
162.869
-1.33213
0.36148
163.798
-2.01756
0.503218
154.972
-3.02054
0.676185
138.169
-4.22949
0.732787
124.416
-5.17626
0.550343
118.968
-5.4701
0.15044
115.976
-5.13845
-0.272192
112.762
-4.5332
-0.474196
109.147
-3.90331
-0.429296
105.487
-3.21946
-0.3565
101.934
-2.46523
-0.336779
98.6744
-1.73532
-0.372962
96.4186
-1.11078
-0.365399
96.5092
-0.657411
-0.231507
100.937
-0.367015
-0.0254613
109.391
-0.214854
0.0990555
114.932
-0.271362
0.262958
102.694
-0.358859
0.212356
61.7194
-0.453267
50.139
0.0969759
-0.543713
59.2239
0.00456825
0.245641
76.8168
-0.0537421
0.497537
100.021
-0.145683
0.463308
79.7283
-0.269341
0.25517
61.8819
-0.237363
-0.490673
57.0232
-0.0248453
-1.13197
57.0543
0.296184
-0.952655
60.2583
0.48699
-0.423157
68.0255
0.529843
0.0471189
80.2427
0.488453
0.342527
95.5973
0.391376
0.490906
112.96
0.28795
0.511751
129.893
0.193872
0.470031
144.243
0.116215
0.408007
155.323
0.0562955
0.348751
163.443
0.0092997
0.301687
168.763
-0.0297349
0.275879
171.245
-0.0717348
0.279906
170.39
-0.132506
0.320218
165.945
-0.219885
0.382545
166.884
-0.334752
0.495702
170.535
-0.49982
0.713442
168.155
-0.745029
1.01085
159.839
-1.13713
1.23989
146.629
-1.65654
1.16828
133.524
-2.17205
0.74169
123.556
-2.60141
0.216203
115.666
-2.8385
-0.19225
109.84
-2.74321
-0.480145
104.535
-2.3404
-0.71987
97.9789
-1.78187
-0.858984
90.6304
-1.19754
-0.921813
83.1012
-0.688107
-0.849786
77.5851
-0.320966
-0.592018
79.4186
-0.185176
-0.169076
94.1872
-0.133226
0.047529
109.886
-0.135327
0.295031
107.788
-0.0968439
0.203863
72.2358
-0.56194
55.1477
-0.0967627
-0.453627
66.9262
-0.0360365
0.198795
83.7538
0.0756323
0.390587
98.8839
0.0753929
0.470018
82.9519
0.0559979
0.276729
66.1213
0.049944
-0.508814
59.4388
0.0438885
-1.15798
58.6301
0.279847
-1.19294
59.5232
0.505922
-0.635721
66.085
0.501975
0.0923479
78.0372
0.380241
0.518464
96.6516
0.248573
0.670337
116.832
0.137212
0.654567
134.142
0.0461801
0.579841
147.679
-0.0260694
0.490617
157.815
-0.0822144
0.411209
165.159
-0.125741
0.350275
169.727
-0.160907
0.316446
171.638
-0.191296
0.316834
170.474
-0.224747
0.358077
166.647
-0.251243
0.412476
167.766
-0.23368
0.486685
171.275
-0.144342
0.640812
170.205
0.0442976
0.855915
165.761
0.267118
1.08051
157.908
0.355619
1.15322
147.78
0.185461
0.971123
138.731
-0.235683
0.675931
131.747
-0.743894
0.353159
124.853
-1.08044
-0.100499
115.036
-1.14387
-0.622016
105.506
-1.01647
-0.946686
94.4027
-0.748267
-1.14144
80.961
-0.466661
-1.10253
69.22
-0.268491
-0.796587
67.7205
-0.238515
-0.221778
81.1708
-0.235504
0.0353909
102.378
-0.144642
0.226315
107.082
-0.025384
0.101821
76.9609
-0.573323
58.3874
-0.0732128
-0.361377
66.6166
0.0875638
0.0450748
83.556
0.29549
0.185326
94.6905
0.398767
0.348259
83.7492
0.493594
0.149152
70.861
0.457225
-0.523011
65.3432
0.282352
-1.03718
61.7869
0.312974
-1.24622
60.0167
0.426687
-0.736719
66.1097
0.385013
0.175078
79.5909
0.258967
0.695922
99.3311
0.141912
0.827167
119.795
0.0536178
0.765538
136.188
-0.0100573
0.655879
148.561
-0.0541664
0.541065
157.734
-0.0769828
0.438574
164.187
-0.0845193
0.36191
168.299
-0.0791777
0.315722
170.086
-0.065631
0.308555
169.1
-0.0539263
0.350561
164.965
-0.0425218
0.404628
165.74
-0.0112203
0.461341
170.063
0.0514879
0.587311
169.987
0.178431
0.74375
166.905
0.382751
0.900873
161.607
0.587105
0.980894
154.096
0.68914
0.895684
145.851
0.686482
0.693025
137.786
0.582376
0.465097
130.096
0.304119
0.178321
122.254
-0.104039
-0.208891
113.24
-0.414311
-0.602096
99.3779
-0.438315
-1.06551
80.6084
-0.365735
-1.15559
65.1623
-0.324269
-0.865904
63.546
-0.25188
-0.333112
70.643
-0.231746
-0.00601466
86.808
-0.146591
0.147669
97.8003
-0.0254412
-0.00370266
80.5704
-0.537617
56.2694
0.100755
-0.414894
58.2192
0.367964
-0.186698
77.9319
0.65134
-0.0783678
87.7968
0.897625
0.0730675
83.3503
1.0656
-0.0823293
75.3417
0.948363
-0.475658
70.4346
0.664938
-0.828858
65.2237
0.451487
-1.07886
61.0818
0.363492
-0.641158
65.707
0.228844
0.347547
81.0964
0.0609718
0.905219
102.38
-0.0519324
0.962071
122.341
-0.125671
0.848193
137.278
-0.175141
0.707972
147.76
-0.200018
0.565847
155.51
-0.204693
0.442879
161.008
-0.188558
0.346182
164.471
-0.158619
0.287107
165.72
-0.111143
0.262741
164.4
-0.0569728
0.296172
160.333
0.00317609
0.344344
161.191
0.0928134
0.372423
165.939
0.216309
0.465976
166.441
0.387284
0.576449
164.248
0.597638
0.69741
160.404
0.797195
0.792163
154.897
0.902854
0.800985
148.234
0.867737
0.733631
140.739
0.736194
0.595385
132.733
0.514369
0.393343
124.009
0.155548
0.143734
114.412
-0.196071
-0.229794
100.569
-0.359532
-0.851622
77.7217
-0.472562
-1.03953
62.3696
-0.599848
-0.783643
63.8025
-0.61686
-0.372071
71.8518
-0.560549
-0.0852306
82.9572
-0.411457
0.0255196
88.2357
-0.238133
-0.114449
72.5618
-0.684257
43.5415
0.370737
-0.691227
45.3299
0.812832
-0.512616
60.786
1.21716
-0.379253
72.0841
1.52515
-0.195512
77.1088
1.6385
-0.217589
75.9595
1.44273
-0.336931
72.3473
1.04926
-0.51155
66.9511
0.640059
-0.728068
61.7154
0.336754
-0.331292
65.3476
0.034584
0.692449
83.2544
-0.155606
1.11936
106.892
-0.231361
1.04706
123.763
-0.284811
0.900718
135.976
-0.301101
0.72108
144.902
-0.294814
0.555954
151.488
-0.263628
0.40981
156.183
-0.2132
0.295491
159.038
-0.147466
0.222718
159.912
-0.0639946
0.180619
158.392
0.0211713
0.210645
153.867
0.0982273
0.266223
154.82
0.184253
0.286993
159.763
0.283153
0.366926
160.92
0.40734
0.450848
159.387
0.554414
0.54763
156.238
0.705971
0.636551
151.59
0.817163
0.683987
145.748
0.850106
0.691256
138.718
0.775998
0.65621
130.751
0.584046
0.568861
121.668
0.294795
0.415662
111.102
-0.0729668
0.13588
97.2191
-0.366483
-0.52029
73.3764
-0.622138
-0.794659
59.8788
-0.874303
-0.574963
62.5498
-0.997506
-0.280653
68.8709
-0.962345
-0.0995603
72.944
-0.732283
-0.112261
68.7604
-0.326409
-0.413783
50.6611
-0.977804
30.8807
0.394277
-1.04741
31.1736
0.928464
-0.983729
38.0588
1.4434
-0.794316
45.1877
1.83244
-0.469087
53.1691
1.95778
-0.258346
59.6335
1.75068
-0.103465
63.2965
1.33548
-0.129045
62.6946
0.784711
-0.22297
59.8692
0.138036
0.333326
64.832
-0.277048
1.1343
90.1295
-0.405919
1.2543
109.26
-0.47015
1.10594
122.914
-0.492015
0.912561
132.863
-0.483108
0.70211
140.234
-0.445945
0.510993
145.667
-0.386079
0.345229
149.371
-0.303249
0.211219
151.436
-0.206207
0.126421
151.607
-0.0781971
0.0536469
149.551
0.0466956
0.0844683
144.638
0.145479
0.165339
145.917
0.259354
0.173758
151.381
0.385898
0.239658
153.129
0.529158
0.304431
152.178
0.679355
0.391988
149.706
0.811417
0.496591
145.874
0.90104
0.583953
140.862
0.917064
0.661649
134.632
0.852333
0.703798
127.235
0.687876
0.712658
118.526
0.422408
0.659807
108.27
-0.0121531
0.554789
95.3177
-0.46276
-0.0368907
68.9839
-0.790899
-0.471732
56.8938
-1.06295
-0.310846
57.5133
-1.17363
-0.135634
58.4215
-1.0512
-0.13411
53.8469
-0.709604
-0.366458
43.599
-0.234085
-0.870421
33.7954
-1.22837
28.3936
0.242839
-1.32086
27.8931
0.657115
-1.43727
33.4943
1.02159
-1.1904
36.8928
1.31094
-0.765385
39.6253
1.45738
-0.381425
42.8246
1.39157
0.000946734
47.2874
1.07894
0.208277
51.0823
0.350644
0.509439
53.5108
-0.369326
1.07422
73.5237
-0.614267
1.38423
94.5802
-0.68301
1.31439
109.274
-0.701777
1.11
120.086
-0.6819
0.876452
127.98
-0.634728
0.641815
133.832
-0.560943
0.427978
137.984
-0.46686
0.247379
140.658
-0.353584
0.0988333
141.771
-0.221096
-0.000913839
141.036
-0.0510033
-0.106759
137.391
0.103717
-0.0644854
131.891
0.211463
0.0581265
134.827
0.311703
0.0771664
140.512
0.421242
0.131166
143.124
0.54814
0.174782
142.807
0.68189
0.251512
140.919
0.810224
0.357219
137.761
0.909209
0.469839
133.521
0.954396
0.59727
128.178
0.93564
0.69943
121.683
0.826487
0.795134
113.884
0.648906
0.808374
104.553
0.36523
0.810078