/*--------------------------------*- C++ -*----------------------------------*\
  =========                 |
  \\      /  F ield         | OpenFOAM: The Open Source CFD Toolbox
   \\    /   O peration     | Website:  https://openfoam.org
    \\  /    A nd           | Version:  11
     \\/     M anipulation  |
\*---------------------------------------------------------------------------*/
FoamFile
{
    format      ascii;
    class       volVectorField;
    location    "500";
    object      U;
}
// * * * * * * * * * * * * * * * * * * * * * * * * * * * * * * * * * * * * * //

dimensions      [0 1 -1 0 0 0 0];

internalField   nonuniform List<vector> 
128000
(
(5.033 -4.36341 15460.5)
(-5.63544 142.856 19381.5)
(-35.1574 265.146 19424.1)
(-31.1308 362.063 20366.9)
(-81.0268 503.4 21211.3)
(-108.422 584.738 21725.6)
(-156.018 655.38 21990.1)
(-196.56 662.329 21845)
(-222.746 619.611 21226.9)
(-218.775 524.391 20432)
(-188.856 422.772 19450.3)
(-171.03 286.299 18547.4)
(-144.235 40.4122 23437.7)
(-22.9152 -106.978 32851.6)
(56.7292 -86.0772 36093.4)
(66.1111 -46.0303 38943.8)
(65.2632 30.9353 40848.5)
(11.7935 108.663 40862.5)
(-63.6754 100.513 36791)
(-130.905 11.0881 31139.6)
(-30.0447 -153.599 29220.3)
(103.445 -145.349 34799.3)
(164.537 -55.014 40413.7)
(118.763 -12.423 41331.2)
(61.2307 -25.459 38055.7)
(30.2458 -83.5654 33026.2)
(131.234 -179.023 24030.6)
(348.741 -226.352 19245.8)
(512.283 -257.237 20128.5)
(634.1 -287.578 21256.2)
(744.118 -301.629 22126.6)
(827.849 -289.521 22835.9)
(851.836 -243.323 23183.7)
(825.851 -197.709 23107.8)
(738.922 -137.549 22682.4)
(635.705 -105.724 21968)
(484.84 -49.5411 21036.7)
(355.249 -44.5767 19753.5)
(228.078 -20.2981 19493.5)
(63.6733 4.81578 17732.9)
(-7.35128 -129.87 19340.7)
(89.2353 6.38895 20456.1)
(42.9625 167.533 21527.8)
(67.5046 243.468 22997.3)
(46.6489 439.891 24393)
(7.73168 524.4 25121.2)
(-49.2239 618.676 25589.9)
(-128.244 655.504 25548.2)
(-225.137 621.667 24762.5)
(-288.256 500.232 23441.7)
(-292.095 337.015 21883.3)
(-270.66 112.439 20229.1)
(-232.851 -154.61 25578.9)
(-109.184 -195.055 38333.5)
(40.2488 -133.959 43739.6)
(120.308 -85.0881 46076.7)
(153.304 -49.2114 47473.4)
(141.82 -28.3544 48030.2)
(102.143 -54.304 45818.9)
(-46.7082 -117.023 36302.5)
(-111.674 -90.0765 33607.1)
(-95.9804 85.1021 43576.9)
(-63.9358 115.435 47295)
(-65.0257 89.6088 47948.1)
(-69.3672 10.4869 46516.5)
(-108.174 -134.036 40945.1)
(-101.525 -262.088 27582.4)
(139.993 -334.926 21216.5)
(398.318 -377.142 22830.5)
(582.689 -383.464 24526.9)
(739.79 -347.343 25828.6)
(830.929 -253.054 26790.1)
(839.638 -152.874 27211.6)
(788.904 -68.1443 27100.2)
(677.451 0.236581 26520)
(572.197 41.2461 25556.7)
(369.998 76.6374 24180.7)
(265.553 44.4264 22171.7)
(85.1514 99.4541 20975.7)
(-38.9963 7.00078 19595.3)
(-34.5136 -249.974 19328.6)
(41.8439 -151.602 21493.9)
(77.4753 9.92376 23284.8)
(100.533 126.153 24863)
(125.126 271.205 26273)
(125.179 376.051 27326.3)
(104.687 481.972 28006.6)
(46.5626 536.259 28034.2)
(-66.7558 521.037 26871.7)
(-212.348 396.397 24729.7)
(-281.943 209.422 22651.7)
(-327.371 -47.8913 20928.7)
(-350.916 -320.542 26924.3)
(-195.77 -306.957 40081.8)
(-0.139993 -233.028 44285.6)
(93.1866 -150.843 45504.1)
(168.378 -73.2545 46614.2)
(180.717 -45.4097 49138.6)
(146.48 -27.9381 52220.8)
(88.0633 -43.7174 52972.8)
(-46.7307 104.683 50420)
(-100.185 180.905 51532.5)
(-131.147 156.261 51437.7)
(-152.031 84.2905 50628.7)
(-195.693 -43.449 48807.6)
(-263.129 -211.538 44346.5)
(-314.99 -360.43 30966.7)
(-83.7209 -396.145 22103.1)
(210.773 -371.577 23483.7)
(422.632 -310.791 25538.8)
(606.567 -207.634 27258.3)
(693.488 -65.4983 28774.4)
(689.182 40.071 29543.3)
(627.503 97.5765 29524.9)
(512.783 132.223 28832.5)
(394.489 127.393 27568)
(223.864 109.47 25996.4)
(96.4371 80.434 24157.2)
(-87.2134 52.6855 22154.1)
(-204.578 -34.6547 19365.6)
(-29.8978 -344.17 20264.4)
(67.893 -223.84 22928.2)
(103.032 -105.501 24844.2)
(161.225 12.0557 26527.9)
(191.586 154.725 28001)
(209.618 254.8 29111.6)
(209.655 350.543 29874.2)
(185.969 408.729 30014.9)
(100.336 390.005 28829.6)
(-92.0781 271.319 25214.8)
(-248.178 60.3902 22636.4)
(-333.904 -194.861 21331.8)
(-428.337 -427.852 27642.2)
(-317.184 -377.027 37297.1)
(-55.8871 -257.68 38789.8)
(133.314 -160.564 37818.9)
(184.458 -105.162 37646.5)
(197.491 -45.2792 39140.8)
(157.147 -35.7767 41506.7)
(132.004 8.86534 41220.7)
(38.9047 141.573 36664.9)
(-63.9329 156.718 38303.4)
(-149.003 124.737 39819.1)
(-227.424 63.9004 41184.8)
(-294.081 -43.2329 42532.2)
(-372.584 -235.41 42680)
(-491.427 -422.982 33787.7)
(-329.901 -399.937 22952.7)
(-15.2359 -325.612 23164.5)
(221.906 -221.975 25197.5)
(425.176 -62.2725 27398.1)
(529.772 115.284 30115)
(533.28 187.4 31234.9)
(476.456 227.405 31306.9)
(369.282 232.111 30521.2)
(261.51 208.206 29310)
(103.967 189.355 27719.3)
(-33.827 120.058 25841.9)
(-156.424 83.3876 23628.7)
(-300.248 -15.6381 20588.5)
(-78.2123 -480.733 21067.7)
(43.9892 -419.709 24274.6)
(125.751 -245.572 26178.2)
(190.409 -126.624 27938.4)
(265.028 15.3441 29492.4)
(296.837 127.761 30740.7)
(325.721 215.537 31580.6)
(310.299 271.133 31710.3)
(285.432 280.287 30815.2)
(105.12 162.918 27076.4)
(-161.59 -9.2973 22200.8)
(-311.152 -288.626 21706.2)
(-460.505 -439.085 27674.5)
(-423.327 -343.127 33750.6)
(-267.584 -248.531 33945.9)
(-46.4071 -142.902 30077.2)
(173.146 -52.8714 31329.7)
(227.719 -30.0112 30949.7)
(207.919 -12.6221 31266.2)
(202.457 87.1127 30201.9)
(165.891 186.963 28477.3)
(46.2246 158.768 28577.2)
(-53.811 120.408 30002.5)
(-150.673 36.0727 32530.2)
(-288.929 -141.875 35781.6)
(-410.066 -342.353 38840.1)
(-548.684 -480.932 34480.6)
(-475.99 -396.296 24230.5)
(-192.341 -274.658 22427.4)
(70.9556 -91.7412 23499.7)
(256.205 168.411 27955.2)
(366.672 302.701 31358.7)
(359.481 344.498 32680.8)
(311.596 360.564 32827.5)
(216.842 332.159 32075.2)
(102.127 293.47 30772)
(-53.9198 223.754 29088.3)
(-188.51 133.866 27135.7)
(-382.429 70.2558 25051.3)
(-471.023 -75.4047 21525.5)
(-103.38 -554.332 21521.4)
(7.17697 -494.116 24898.4)
(124.45 -342.986 27107.3)
(208.098 -222.851 28951.7)
(294.667 -94.3418 30637.8)
(353.258 17.8243 32119.2)
(395.347 105.118 33231.2)
(410.513 148.202 33656.2)
(381.254 169.228 32979.3)
(329.992 92.5218 30691.2)
(-22.1572 -54.1991 22430.5)
(-265.318 -273.006 22110.8)
(-415.715 -370.333 26810.1)
(-440.764 -238.789 30273.2)
(-362.623 -99.2016 30192.1)
(-266.573 5.94628 28124.1)
(-147.452 50.619 26160.6)
(76.5116 61.1596 26633.1)
(190.044 44.6623 28306)
(244.868 115.103 28558.5)
(263.038 128.308 27223.4)
(206.077 19.7014 25884.8)
(118.14 -74.7448 26728.7)
(10.446 -193.141 29240.7)
(-127.872 -304.849 32460.3)
(-292.157 -401.93 34941.6)
(-477.721 -471.188 33346.9)
(-527.581 -353.784 25751.4)
(-294.229 -181.613 22226.9)
(-44.5715 115.406 23811.1)
(123.457 352.77 29908.4)
(200.415 425.259 33058.3)
(204.451 455.045 34418)
(167.248 442.309 34416.4)
(83.2263 395.739 33443.7)
(-25.3078 330.736 31896.8)
(-165.062 240.887 30044.2)
(-285.63 150.564 27995.2)
(-456.346 40.183 25659.7)
(-565.091 -96.2858 22057.2)
(-148.455 -615.983 21711.3)
(-50.802 -581.823 25300.8)
(105.224 -448.534 27727.2)
(206.927 -314.92 29604.7)
(323.742 -177.993 31356)
(396.449 -66.8636 33108.9)
(452.973 18.6365 34649.7)
(482.371 67.2361 35626)
(473.459 76.3751 35682.7)
(434.577 56.5795 34571.6)
(292.968 -61.3724 31919.1)
(-199.213 -206.766 22519.8)
(-391.35 -232.656 25347.8)
(-413.433 -91.0548 27057.5)
(-399.292 16.1389 27046.5)
(-325.299 114.222 26133.5)
(-261.009 115.506 25279.8)
(-205.203 51.2518 25271.7)
(65.63 -6.04405 27855.7)
(225.415 57.1912 29039.8)
(262.258 7.05056 27042.5)
(270.104 -132.248 25078.3)
(292.965 -220.219 25712.5)
(224.23 -273.483 27169.8)
(72.5622 -345.676 29167.1)
(-118.074 -399.7 30867.7)
(-315.698 -408.097 30589.6)
(-429.765 -306.44 26264.4)
(-297.688 -59.3472 22499.5)
(-118.887 324.046 29426.9)
(23.7199 473.274 33581.3)
(75.6764 536.781 35849.4)
(86.198 541.942 36555.1)
(51.3021 511.481 36011.7)
(-23.9394 444.154 34569.8)
(-127.596 362.782 32650.7)
(-265.735 252.229 30642.9)
(-409.828 128.844 28594.4)
(-576.156 -5.30823 26080.9)
(-668.171 -153.914 22374.1)
(-185.465 -611.609 21452.2)
(-130.88 -609.014 25132.5)
(41.5648 -493.815 27622.2)
(184.022 -368.256 29621.1)
(302.123 -233.223 31315.2)
(404.343 -107.286 33379.6)
(475.64 -28.3924 35485.5)
(517.519 19.0576 37153.6)
(526.183 32.3556 37999.6)
(492.946 11.5601 37731.9)
(422.869 -42.7251 36064.3)
(211.507 -116.668 32478.6)
(-285.259 -101.134 25723.6)
(-368.568 -11.978 26045.3)
(-388.699 89.4991 25931.7)
(-369.882 98.1039 25523.2)
(-316.652 52.6255 25150.5)
(-280.097 -44.3348 25429.8)
(-159.652 -59.0476 28070.6)
(115.323 38.42 30458.1)
(157.636 -21.9498 29162.3)
(106.88 -146.252 26174.7)
(196.314 -224.611 25478.9)
(235.957 -281.921 25870.1)
(186.187 -341.182 26679)
(58.2767 -357.172 27539.1)
(-129.206 -343.305 27697.4)
(-271.843 -210.811 25968.1)
(-232.041 215.254 29869.3)
(-119.163 467.971 34754.7)
(-48.7536 559.497 37569.6)
(-4.64719 593.46 38769.9)
(6.70817 577.52 38586.5)
(-22.1025 528.421 37257.9)
(-86.4712 445.337 35126)
(-183.399 346.958 32691)
(-318.282 213.286 30468.4)
(-455.68 95.592 28235.8)
(-632.755 -70.3392 25873.3)
(-720.477 -193.452 22363)
(-202.668 -556.104 20743.2)
(-224.813 -556.994 24138)
(-80.3501 -460.613 26104.7)
(82.711 -324.282 28038.5)
(281.035 -228.704 30233.4)
(377.082 -124.95 32553)
(464.648 -38.0575 35406)
(524.488 4.87937 37888.5)
(551.208 17.8907 39667)
(538.801 2.15966 40452.8)
(482.519 -44.6709 39945.1)
(388.89 -105.153 38088.5)
(183.483 -109.875 34460.1)
(-172.844 -53.7939 28672.1)
(-256.001 -38.991 27146.8)
(-311.133 -21.7558 26253.4)
(-309.861 -85.788 25713.1)
(-295.836 -154.53 26165.7)
(-215.398 -80.4233 28949.1)
(-73.5223 46.8085 31303.9)
(74.5974 -13.579 31654.3)
(-40.0285 -102.432 29285.9)
(-25.8276 -192.396 27428)
(22.88 -197.595 27496.2)
(52.774 -223.819 27777.4)
(-14.4521 -180.153 28274.1)
(-100.559 -118.636 29082.5)
(-210.4 188.901 33045.4)
(-210.668 444.602 37578.8)
(-145.004 558.894 40127.8)
(-87.7458 607.346 41320.3)
(-42.7269 613.65 41264)
(-27.4521 580.807 40048)
(-49.8919 517.321 37782.5)
(-102.671 418.944 34793.7)
(-194.687 306.524 31734.3)
(-310.222 174.4 29281)
(-458.845 22.2761 26940.6)
(-654.231 -135.867 25088.3)
(-743.986 -242.882 22059.8)
(-192.446 -458.467 19907.1)
(-273.728 -422.222 22716.1)
(-218.251 -315.728 23838.2)
(-120.829 -202.622 24052)
(58.5051 -108.754 25603.5)
(308.618 -35.738 30055.1)
(419.013 -15.6528 34142)
(483.299 22.8256 37517.6)
(533.341 32.2232 40355)
(533.486 17.0245 42327)
(503.206 -29.7556 43074.8)
(437.69 -86.079 42484.3)
(340.377 -147.155 40512)
(203.537 -145.555 36871.7)
(-30.4731 -144.903 31621.4)
(-146.902 -163.039 28897.9)
(-248.267 -187.838 27419.1)
(-259.623 -195.344 28281.3)
(-231.911 -44.3213 31688)
(-140.964 40.7827 34263.7)
(-86.6112 19.0781 35253.7)
(-96.4029 -64.1244 33886.2)
(-163.203 -64.1416 32053.9)
(-162.251 -43.1414 32328.8)
(-177.8 13.6012 33246.4)
(-198.161 87.0667 34887.2)
(-235.668 257.184 38529.6)
(-265.952 408.418 41491.6)
(-221.208 515.79 43345)
(-154.405 573.737 44214.1)
(-93.8527 592.827 44077.5)
(-44.5263 579.486 42896.8)
(-23.2932 534.757 40654.6)
(-39.1435 452.965 37305.6)
(-77.6098 340.845 33232.7)
(-135.365 217.765 29297.6)
(-231.762 40.6218 25523)
(-411.858 -46.9475 24319.4)
(-618.922 -199.899 23857.6)
(-726.683 -272.513 21518.1)
(-154.541 -354.619 18871.2)
(-263.724 -248.904 21055.9)
(-269.379 -125.914 21705)
(-254.47 23.5457 21675.2)
(-186.029 77.6272 21445.6)
(-80.5141 110.55 20911.9)
(259.425 95.2341 31459.9)
(406.94 77.0664 35764.9)
(476.569 73.2167 39787.4)
(502.03 60.3411 42996.3)
(474.682 12.1828 45054.4)
(429.899 -53.7765 45836)
(360.228 -114.329 45370.3)
(271.523 -176.095 43525.4)
(168.533 -202.778 39798.6)
(-0.45591 -214.899 35758.6)
(-134.769 -233.685 32759.3)
(-214.913 -165.733 33839.1)
(-208.478 -30.1956 37203.9)
(-168.367 23.2038 38214.5)
(-139.478 26.9484 38545.4)
(-175.192 -9.88915 38582.7)
(-210.067 22.4779 38765.5)
(-241.75 92.5875 39690.2)
(-256.453 168.338 41248.7)
(-267.896 283.532 43972.6)
(-271.744 364.956 45820.3)
(-240.69 447.643 46909.9)
(-188.844 511.457 47314.3)
(-123.088 543.186 46959.9)
(-65.9144 544.978 45777.8)
(-12.1937 519.012 43642)
(9.30241 460.142 40401.8)
(0.356016 360.299 35724.3)
(5.68883 210.549 30300.2)
(-7.80851 13.6532 23223.7)
(-94.6955 -21.3275 22006.9)
(-289.365 -88.0823 22008.2)
(-558.474 -240.366 22633.5)
(-688.547 -294.632 20837.7)
(-154.219 -197.871 18571.5)
(-247.636 0.170798 20029.3)
(-320.444 158.055 20853.6)
(-347.619 287.765 21512.6)
(-334.964 354.634 22132.5)
(-306.213 313.013 22487.6)
(-249.24 225.589 22846.8)
(174.382 135.724 31846.8)
(371.646 128.764 37899.1)
(430.609 115.611 42346.9)
(425.214 79.1258 45785.3)
(384.08 14.7175 47831.8)
(328.809 -53.9337 48734.4)
(265.925 -106.068 48673.1)
(181.142 -160.547 47592.8)
(85.5567 -188.251 44733)
(-48.5951 -194.007 42019.8)
(-142.943 -116.729 42283.2)
(-165.471 -29.9042 43790.7)
(-156.41 12.8624 42890)
(-142.539 30.6407 43087)
(-168.904 40.0081 43981)
(-198.018 95.1569 45483.4)
(-218.414 156.827 46882.9)
(-227.816 236.04 48623.7)
(-228.78 300.724 49815.2)
(-209.097 367.071 50372.5)
(-185.108 427.754 50381)
(-137.638 467.608 49831.2)
(-85.2843 484.798 48627.1)
(-31.0139 470.394 46667.1)
(20.934 427.988 43724.3)
(45.3924 354.339 39449.4)
(45.6092 183.071 32767.8)
(110.846 -93.8129 24140.5)
(131.516 -72.9837 22992.1)
(81.0367 -81.7269 21529.6)
(-154.085 -142.441 20547.4)
(-456.412 -276.211 21412.6)
(-633.937 -303.147 20045.6)
(-88.4755 78.0589 27689.6)
(-188.389 228.185 30267.5)
(-309.989 367.036 31256.6)
(-407.82 448.625 30763.4)
(-454.315 431.136 29539.2)
(-418.813 336.265 27585)
(-400.857 199.957 25550.5)
(-295.284 77.2523 25948.5)
(171.367 112.095 34325)
(335.018 165.924 40354.9)
(357.854 130.025 45294.1)
(328.466 75.8796 48676.4)
(284.266 6.37304 50565.2)
(225.526 -55.1681 51534.6)
(169.085 -104.521 51724.4)
(86.3493 -139.632 50923.4)
(5.41025 -144.688 49722)
(-80.9166 -93.3361 49431.8)
(-106.306 -42.1487 49196.6)
(-132.126 -0.501755 47284.7)
(-127.076 30.13 47591.2)
(-160.644 63.9833 49046.2)
(-175.071 117.833 50781)
(-191.115 185.45 52168.3)
(-191.148 246.126 53091.7)
(-179.857 315.515 53403.2)
(-164.501 368.261 53238.6)
(-134.715 414.757 52588)
(-98.9792 435.235 51425.4)
(-51.1068 433.71 49639)
(-7.6299 393.41 47110.5)
(54.7582 333.509 43518.2)
(47.862 200.622 37966)
(44.207 -123.665 27645.5)
(152.507 -187.031 27215.9)
(271.314 -138.595 27193.4)
(275.575 -156.998 24564)
(74.7923 -188.824 20629.5)
(-288.818 -278.559 20027)
(-558.253 -289.016 19153.3)
(36.3122 139.751 33900.9)
(-39.8752 205.128 40142.9)
(-108.656 294.771 41580.6)
(-225.486 350.723 38098.5)
(-368.761 313.41 33950.4)
(-408.36 201.558 30107.4)
(-398.87 53.6044 26821.6)
(-357.885 1.95529 26066.7)
(-158.377 67.5258 28878.7)
(199.684 168.245 36666.3)
(269.032 192.805 43438.2)
(262.8 134.235 48564.9)
(224.519 73.1591 51511.6)
(183.258 15.1905 53255.8)
(131.474 -33.7636 54286.8)
(79.4272 -61.885 54621.3)
(17.4235 -73.8811 54374.4)
(-36.842 -48.5466 54084.2)
(-62.4984 -16.0566 53395.1)
(-85.983 18.3419 51385)
(-88.113 53.516 51704)
(-104.523 89.5423 53277.8)
(-110.442 142.29 54908)
(-115.878 193.046 55758.1)
(-115.668 249.475 55988.7)
(-115.724 301.857 55739)
(-106.268 345.991 55073.1)
(-98.1494 379.599 53947)
(-73.883 383.537 52353.1)
(-52.0735 366.315 50180.2)
(-7.17449 297.792 47319.6)
(17.4595 223.871 43262)
(-19.4034 -15.5216 35336.8)
(-44.4946 -203.599 28733.2)
(58.2579 -230.136 30451.3)
(232.462 -221.541 33626.7)
(315.285 -203.113 33157)
(249.982 -198.529 27077.3)
(-62.1321 -242.931 20105.1)
(-463.173 -266.953 18150.6)
(92.8718 114.668 36688.9)
(89.5697 155.469 44223.5)
(52.9995 231.759 44564.3)
(15.4987 250.475 38514.9)
(-202.566 239.145 33142.4)
(-334.051 74.1994 29573.3)
(-380.897 -35.8864 26675.6)
(-380.553 -88.2703 25873.8)
(-239.902 50.9863 27236.9)
(-20.9271 163.059 31742.4)
(169.556 212.809 39766.3)
(179.837 180.912 47448.1)
(170.501 110.769 51663.8)
(131.725 53.093 54212.2)
(105.55 0.777827 55798.2)
(58.3755 -31.562 56725.6)
(27.796 -49.2301 57010.9)
(-17.7916 -37.2386 56903.6)
(-31.4985 -19.9763 56187.9)
(-60.2318 9.61682 54302.8)
(-63.1477 42.3202 54638.4)
(-81.8917 82.694 56266.4)
(-82.3979 132.827 57472.8)
(-84.1286 192.662 57850.1)
(-79.5844 252.718 57711.6)
(-75.2247 315.061 57106.3)
(-73.7357 359.581 56098.6)
(-71.7446 384.691 54639.1)
(-69.9133 375.597 52795.6)
(-62.4561 327.699 50500)
(-39.543 246.025 47605.7)
(-10.6452 114.658 43436.1)
(-45.8769 -96.898 35373.2)
(-145.546 -232.372 29557.4)
(-25.588 -252.167 31664.6)
(137.17 -197.16 36780.4)
(223.963 -175.573 41287)
(228.989 -171.354 40187)
(89.3653 -181.479 29582.8)
(-303.831 -229.453 18537.1)
(91.4902 62.9673 39158.4)
(154.685 106.453 46285.2)
(134.034 151.273 45581.6)
(175.874 174.738 38044.2)
(14.9613 133.881 30285.9)
(-235.004 4.16469 27851.1)
(-305.362 -114.754 25945.2)
(-360.221 -75.5832 25513.4)
(-297.905 47.0854 26338.8)
(-140.523 189.468 29061)
(4.08292 232.405 35888.2)
(80.2902 214.678 44616.9)
(84.9446 153.659 50798.7)
(75.0067 96.217 54418.5)
(55.5786 45.8512 56715.7)
(32.9646 18.394 58033.6)
(12.1119 1.47615 58758.9)
(-9.56435 5.57839 58823.2)
(-15.0746 18.8938 58247.9)
(-22.2357 42.1549 56601.2)
(-16.329 72.0222 56839.5)
(-15.0925 104.854 58318.8)
(-6.26068 149.296 59135.8)
(-0.376514 198.657 59156.9)
(1.94023 253.654 58636.5)
(-11.3717 309.184 57613)
(-33.957 350.02 56179.9)
(-67.0292 370.745 54366.5)
(-94.3021 347.094 52392.3)
(-119.015 284.537 50209.8)
(-123.343 160.728 47626.7)
(-122.097 21.7448 43811.2)
(-133.128 -166.052 36762.2)
(-203.923 -243.669 30356.3)
(-118.972 -241.441 31544.5)
(35.9817 -151.366 36993.6)
(116.439 -111.192 44487.6)
(117.702 -89.9432 49071.7)
(12.6854 -106.474 41421)
(-187.888 -216.594 25012.6)
(81.0475 -13.6389 40606)
(173.576 73.7827 47631.5)
(194.009 86.7797 46986.9)
(205.95 124.696 37975.7)
(214.236 68.2372 31495.4)
(-118.093 -27.8519 26007.6)
(-259.764 -85.2233 25278.5)
(-306.511 -24.231 25205.4)
(-299.597 106.02 25819.8)
(-238.464 205.45 27592.4)
(-123.539 238.923 33125)
(-44.0505 207.619 42175.8)
(10.4724 147.84 49677.9)
(18.2253 91.4984 54220.7)
(29.4116 42.8335 56951.9)
(14.6636 11.8104 58663.6)
(14.6468 -10.968 59574.5)
(-2.42287 -14.2892 59765.6)
(1.40935 -11.708 59192.3)
(-6.77786 5.2562 57534.1)
(1.56023 27.5743 57795.2)
(1.3902 61.96 59299.3)
(14.9033 112.701 59809.8)
(24.6714 182.414 59486.1)
(33.302 265.352 58589.4)
(24.4459 352.075 57093.2)
(-1.255 405.638 55186.1)
(-37.8823 410.537 53081.2)
(-84.8457 356.198 51141.6)
(-143.078 254.279 49370.6)
(-164.89 113.262 47473.5)
(-164.602 -50.1175 44417)
(-160.572 -209.921 38214.1)
(-220.783 -259.154 31654.9)
(-149.84 -225.052 31616.7)
(-19.9442 -90.2243 37293.6)
(78.6354 -51.2201 46524.5)
(83.4433 -5.04751 53418.4)
(-50.2407 -54.5804 46328.3)
(-228.051 -189.146 33225.5)
(20.6991 -72.9917 39901.2)
(162.151 54.9097 48136)
(195.707 69.3143 49254)
(215.571 68.9363 38896.7)
(246.067 53.7073 30601.4)
(147.985 -34.4636 27394)
(-189.127 -26.276 25461.4)
(-283.311 62.5796 25617)
(-287.675 173.167 26408.7)
(-257.965 211.798 28608.2)
(-209.898 183.093 34077.5)
(-144.95 148.013 42152.9)
(-83.6212 115.844 49168.5)
(-48.1057 86.2362 53786.1)
(-29.1236 53.708 56772.8)
(-22.4521 34.0915 58693.6)
(-15.6813 19.5375 59820.5)
(-13.2121 18.8416 60173.3)
(0.00405488 25.4335 59692.3)
(13.9658 42.3703 58113.4)
(39.5452 62.7694 58197.1)
(66.7984 92.0491 59593.4)
(104.051 134.307 59856.1)
(138.014 192.283 59102.3)
(153.464 265.657 57540.9)
(120.44 337.79 55144.5)
(59.2872 357.546 52511.5)
(-9.72557 330.171 50156.7)
(-70.5194 260.038 48390.8)
(-155.842 153.391 47146.6)
(-201.281 -46.4259 45855.4)
(-206.122 -221.457 43474.4)
(-177.248 -312.766 38387.1)
(-197.112 -295.766 33015.9)
(-154.26 -206.12 32236.3)
(-68.6856 -61.1663 38109.9)
(22.4397 -26.6692 48454.9)
(44.5701 53.4765 54413.3)
(-42.6502 -33.2871 44689.6)
(-267.877 -216.951 36208.1)
(-53.0266 -53.4737 34296.6)
(111.729 72.415 46328.8)
(166.709 44.6759 51445.3)
(178.918 39.9481 39581.4)
(234.874 -12.2099 30206.9)
(247.076 -54.732 28326.5)
(172.051 -11.0045 28360.2)
(-124.332 62.4538 29030.7)
(-175.96 56.7732 29737.7)
(-212.707 53.1371 32473.3)
(-188.574 40.4942 37588.1)
(-159.947 54.2649 43638.3)
(-97.952 50.8813 48913.1)
(-66.4014 38.314 53062.5)
(-31.5897 13.2736 56033)
(-22.9642 -5.47567 58059.5)
(-3.41593 -24.7999 59222.3)
(1.31942 -33.9003 59517.6)
(20.7431 -41.7478 58785.1)
(32.1947 -41.9818 57133.6)
(58.777 -40.3891 57466.4)
(82.6677 -19.5771 58783.1)
(119.181 28.5624 58617)
(156.022 121.819 57384.9)
(192.363 250.622 55005.9)
(205.826 332.794 51712)
(216.584 291.156 48865.1)
(240.019 159.469 46767)
(253.203 -14.4217 45353.5)
(172.43 -227.698 44323.1)
(47.8051 -405.23 43341.7)
(-37.7769 -455.687 41265)
(-56.1447 -412.341 37679.6)
(-92.7619 -313.335 34209.3)
(-78.115 -177.877 34280.5)
(-13.3414 -71.4593 42930.8)
(111.028 -66.9306 52420.8)
(141.043 -31.779 45783.9)
(77.3793 -179.734 33891.8)
(-184.316 -269.388 35224.7)
(-82.1429 16.1544 28730)
(-37.3904 116.088 38096.8)
(107.839 29.1454 51771.5)
(149.675 -40.8956 37970.5)
(228.17 -120.685 29212)
(272.39 -113.268 28118.8)
(274.317 -32.788 28327.1)
(152.621 -0.845265 29936.8)
(-42.8839 -25.0263 31634.6)
(-112.096 7.39615 34391.8)
(-152.21 18.4718 37882.4)
(-159.392 35.2274 42144.8)
(-138.118 32.7489 46612.3)
(-111.337 28.4778 50736.3)
(-82.349 11.9401 54012.2)
(-62.5175 3.44088 56320.7)
(-42.7737 -7.8154 57692.4)
(-29.7673 -8.33305 58138.3)
(-8.99983 -7.6891 57496.5)
(14.9018 3.53276 55548.2)
(55.7927 17.9141 55738.7)
(116.55 45.6463 57448.6)
(215.556 80.3891 57249.2)
(349.283 108.279 55011.6)
(471.634 60.3399 50793.5)
(532.699 -119.72 46440.6)
(535.303 -375.546 43743.8)
(525.135 -578.39 42263.9)
(549.71 -688.705 41340.8)
(535.859 -725.209 40800.2)
(430.812 -698.246 40196.6)
(281.146 -612.849 39015.4)
(172.165 -482.341 37537.2)
(81.63 -331.97 37050.2)
(13.0477 -207.759 39894.9)
(-4.54816 -174.846 47989.9)
(49.3227 -175.073 53632.8)
(127.172 -153.227 44661)
(195.44 -177.903 29950.8)
(85.0693 -205.569 30323.7)
(-2.4277 140.457 29004.6)
(-108.797 95.5272 34922.9)
(-56.9484 -101.742 49979.8)
(27.0813 -132.98 35864.3)
(165.078 -159.254 27892.2)
(274.998 -67.0523 26437.3)
(287.66 71.6138 25874.7)
(150.292 81.5169 27427.3)
(46.3909 75.8757 30801.4)
(-83.8348 47.6476 34187.6)
(-124.382 19.7898 37667.7)
(-146.613 14.4062 42193.8)
(-122.865 -4.3397 46924.3)
(-106.618 -16.5429 51112.5)
(-71.3464 -34.5035 54304.7)
(-51.1109 -45.0078 56528.7)
(-20.3169 -59.5433 57802.8)
(-1.70993 -70.2749 58045.4)
(28.1715 -89.3584 57120.9)
(59.7632 -116.681 55544)
(119.885 -169.393 56114.9)
(197.454 -244.881 56592.2)
(312.956 -365.911 53841.5)
(482.147 -542.817 48389.6)
(744.91 -795.184 44006.8)
(1028.51 -1046.7 42614.6)
(1204.71 -1180.23 42194.1)
(1213.69 -1159.05 41778.2)
(1104.03 -1042.99 41292.1)
(966.178 -926.479 40864.1)
(816.574 -819.442 40550.2)
(644.998 -676.366 40427.2)
(490.37 -495.418 40807.5)
(342.355 -327.269 42323.9)
(199.666 -214.976 46013.9)
(81.7046 -161.019 52011.8)
(17.3276 -118.946 57205)
(-13.3576 -105.681 53712)
(47.8114 -155.87 34033.4)
(198.309 5.24155 29241.1)
(123.005 170.881 34730.3)
(-88.6166 -37.9942 42572.8)
(-115.816 -143.277 52550.7)
(-103.893 -111.298 39875.9)
(18.0295 -112.486 29559)
(192.812 49.0973 26097.4)
(305.148 192.994 25106.7)
(148.463 211.907 25593.5)
(-44.9125 156.259 27969.4)
(-128.955 115.317 32032.3)
(-181.518 56.5872 37155.7)
(-189.564 13.8313 42866.6)
(-172.166 -24.5202 48260.1)
(-144.089 -35.2931 52614.2)
(-112.33 -49.5794 55774.2)
(-89.4136 -49.4824 57932.8)
(-68.4337 -58.3091 59203.1)
(-59.2297 -59.8965 59611.5)
(-52.59 -75.9856 59010.3)
(-57.4214 -93.7569 57323.6)
(-57.1927 -132.288 57647.4)
(-72.3722 -183.107 59063.5)
(-98.749 -272.759 58547.5)
(-130.592 -384.763 56099)
(-98.4233 -486.959 52007.2)
(59.4085 -536.801 47973.1)
(325.095 -515.709 45084)
(594.572 -455.346 42980.8)
(772.756 -460.055 41679.6)
(791.07 -494.247 40625.4)
(730.667 -452.584 39108.9)
(626.08 -328.412 37265.5)
(506.492 -190.818 35306.2)
(365.358 -62.2945 34161.2)
(223.717 -3.75562 36352.1)
(88.8203 6.77825 44971.9)
(50.3266 -53.139 54934.9)
(-53.0363 -96.6655 56635.6)
(-2.22127 -118.061 40037.8)
(126.989 141.854 32350)
(190.128 93.6277 39718.3)
(-51.9268 -77.0753 46906.6)
(-130.152 -112.577 52458.9)
(-174.053 -73.6839 41853.5)
(-74.9415 -72.0665 31844.4)
(90.6104 138.539 27411)
(305.678 260.764 25987.9)
(241.526 271.616 25457.1)
(29.8312 227.78 27352.8)
(-151.53 106.837 31356.2)
(-198.917 7.08388 37803.6)
(-206.461 -57.6829 44603)
(-169.933 -83.9604 50126.1)
(-137.73 -91.7061 54168.4)
(-96.1384 -93.1397 56978)
(-69.9592 -89.118 58853.4)
(-41.3381 -88.1383 59854)
(-28.5995 -85.8385 60057.9)
(-15.4251 -92.5747 59342.8)
(-18.0785 -101.4 57859.9)
(-14.0991 -120.135 58247.8)
(-28.9642 -135.763 59622)
(-70.5565 -164.005 59560.1)
(-155.082 -190.238 58464)
(-267.201 -206.537 56287.6)
(-337.969 -188.687 53374)
(-296.064 -160.113 50897.2)
(-175.198 -169.13 49230.5)
(23.4631 -203.295 47658.4)
(260.838 -180.029 44985.3)
(419.459 -103.653 42385.7)
(465.524 -32.0801 39083.1)
(452.931 40.222 34649.8)
(358.904 105.982 30711.9)
(243.206 83.9804 31241.5)
(72.8765 -11.994 39082.5)
(50.9757 -107.997 51647.7)
(-25.2901 -130.629 56817.3)
(-13.7391 -87.5366 43104)
(132.928 197.639 34661.4)
(157.933 59.2401 40243.6)
(-37.3028 -37.6837 47549.7)
(-145.652 -19.8841 50986.7)
(-237.988 -6.40074 42833.2)
(-177.016 38.9942 34556)
(-17.1054 253.312 30492.5)
(200.975 317.148 27694.2)
(256.454 328.535 25940.1)
(69.8617 234.435 27645.6)
(-137.031 77.2175 32295.2)
(-219.324 -64.5093 39216.6)
(-220.706 -114.226 46145.5)
(-183.78 -137.079 51332.8)
(-147.64 -126.014 54951.7)
(-108.334 -123.136 57417.6)
(-84.8762 -106.007 58978.8)
(-64.5337 -101.978 59820.5)
(-61.2348 -90.8972 59980)
(-62.0665 -96.3769 59320.3)
(-81.2034 -100.713 57717.6)
(-93.7826 -119.843 57988.3)
(-117.336 -129.558 59657.9)
(-153.191 -156.058 59946.6)
(-209.549 -173.435 59328.2)
(-273.785 -174.377 58058.3)
(-332.905 -126.627 56101.2)
(-327.142 -50.3625 53953.4)
(-272.178 32.5188 51930.8)
(-208.423 79.1573 50099.7)
(-114.696 114.378 48242.8)
(79.5229 141.518 45930.1)
(258.353 139.004 41565.9)
(366.634 159.322 34876.6)
(340.32 205.678 29240.8)
(279.246 132.915 29664)
(134.333 4.31944 34447.2)
(58.0461 -58.3704 44396.8)
(21.6126 -116.218 52663.3)
(10.5459 -25.7792 45855.3)
(123.18 164.876 34018.4)
(102.91 81.6549 36026.4)
(-45.2623 59.6802 45338.1)
(-191.653 118.403 48242.6)
(-294.8 122.812 43427.2)
(-313.703 231.112 37373.6)
(-160.593 355.713 33403.7)
(34.6897 387.638 29680.7)
(180.513 373.109 26777.8)
(95.4017 252.602 27857.3)
(-142.204 19.2817 33340.6)
(-216.319 -135.821 40927.9)
(-212.356 -191.705 47692.9)
(-162.888 -188.945 52345.9)
(-120.926 -175.293 55273.7)
(-78.1652 -155.43 57232.2)
(-50.91 -132.916 58460.8)
(-27.9043 -113.246 59079.8)
(-22.7382 -93.504 59051.9)
(-21.2027 -82.6618 58268.9)
(-42.5114 -74.0306 56675.3)
(-57.0553 -73.9239 56978.5)
(-81.9442 -64.1681 58813.9)
(-123.966 -67.1173 59308.7)
(-184.714 -65.4261 59000.2)
(-257.865 -59.5787 58243.2)
(-332.769 -37.4488 57009.3)
(-371.947 -2.50285 55452.5)
(-363.164 28.6316 53662.9)
(-299.504 49.9362 51734)
(-210.245 81.0192 49552.7)
(-92.5515 77.4522 47015.5)
(79.7724 67.0857 42643.1)
(281.342 160.481 34119.9)
(328.626 195.705 28414)
(311.575 74.9378 30266.2)
(225.735 -80.3134 35644.4)
(140.4 -178.851 43225)
(96.127 -200.172 48487.3)
(83.4871 -89.2331 42230.1)
(168.791 116.781 26975.9)
(103.658 153.088 28939.6)
(-92.304 210.49 36403.4)
(-271.891 299.336 40678.7)
(-397.473 341.915 41170.8)
(-434.684 425.809 38540.7)
(-334.511 452.491 35033.4)
(-161.744 430.739 31064.2)
(31.2575 375.183 27551.1)
(7.23346 206.268 28190.4)
(-163.457 -50.729 34800.7)
(-221.851 -244.794 43406.4)
(-200.715 -250.085 48981.2)
(-143.847 -245.654 52611.3)
(-102.657 -212.716 54977.7)
(-61.8201 -188.048 56526.2)
(-39.8993 -152.311 57479.3)
(-23.6625 -127.863 57890.3)
(-27.2394 -99.6548 57732)
(-34.7432 -84.585 56871.3)
(-66.5704 -69.4364 55095.3)
(-92.0085 -70.9771 55436.4)
(-115.838 -55.6703 57363.4)
(-148.822 -57.165 58095.5)
(-190.382 -49.4728 58016.6)
(-234.084 -39.6758 57498.9)
(-281.097 -16.731 56563.9)
(-310.538 14.7562 55297.3)
(-319.157 46.0524 53668.9)
(-299.467 62.584 51737.9)
(-246.28 63.8881 49389.7)
(-146.368 59.3231 46413.3)
(0.586456 69.9742 41936.3)
(213.573 120.766 32804.4)
(302.692 130.035 27807.8)
(326.294 -20.9369 30291.2)
(301.504 -176.611 34937.8)
(274.727 -265.09 38937.9)
(229.427 -265.586 38799.1)
(182.257 -131.383 30344.1)
(205.049 242.178 19692.3)
(263.879 226.697 20630.2)
(4.56877 308.658 23568.3)
(-235.952 395.141 26325.1)
(-454.355 446.519 29265.1)
(-546.523 490.787 31130.9)
(-505.279 475.043 31465.7)
(-356.784 408.113 29800.5)
(-160.835 345.103 27332.3)
(-80.3194 133.02 28567.8)
(-192.205 -236.295 38429.8)
(-211.173 -326.619 45218.2)
(-154.775 -319.383 49541.3)
(-100.971 -291.961 52322)
(-51.8547 -252.029 54123.9)
(-13.2502 -209.1 55266.7)
(11.2005 -165.394 55874.2)
(25.9829 -123.638 56010.8)
(22.8538 -85.3361 55603)
(16.0218 -51.6911 54541.9)
(-23.791 -22.5308 52601.5)
(-52.8466 -13.9553 53066.5)
(-79.8504 5.07393 55209)
(-120.958 14.2782 56160.6)
(-166.431 25.1479 56284.4)
(-220.831 35.298 55998.7)
(-274.915 43.6479 55344.6)
(-317.846 50.8894 54365.6)
(-343.142 53.2766 53016.7)
(-339.484 45.0267 51278.1)
(-310.007 33.1053 49042.2)
(-245.792 -4.10239 46143.3)
(-143.181 -33.2066 41985.5)
(129.768 5.43134 31532.1)
(272.201 3.83312 27053.8)
(301.936 -153.909 28575)
(300.784 -305.376 30473.6)
(274.686 -370.563 29622.5)
(247.897 -266.583 25393.5)
(254.968 34.5292 20903.5)
(242.405 415.15 18755.7)
(453.993 260.92 19251.6)
(276.74 376.16 21538)
(57.1876 414.864 22238.9)
(-197.047 403.254 22518.2)
(-370.607 375.989 23057.7)
(-469.971 318.659 24224.2)
(-400.147 264.775 24990.1)
(-267.229 169.461 25099.5)
(-175.491 -209.383 33213.8)
(-202.878 -393.126 41281.4)
(-164.748 -411.001 46248.7)
(-108.692 -380.917 49455.3)
(-52.185 -337.409 51456.3)
(-7.60034 -281.791 52702.3)
(26.7973 -230.634 53385.7)
(44.2289 -175.044 53630.3)
(52.7859 -128.019 53429.5)
(41.1235 -82.7255 52692.7)
(29.0336 -37.9436 51036.2)
(-25.0667 -2.03483 48850)
(-71.7289 -4.67487 49935.7)